version 2
run Nodes_in_grid-1-20130618-16:57:40-14483
attr configname Nodes_in_grid
attr datetime 20130618-16:57:40
attr experiment Nodes_in_grid
attr inifile omnetpp.ini
attr iterationvars "$0=5000, $1=5000, $2=5000, $3=5000, $4=5000, $5=5000, $6=5000, $7=5000, $8=5000, $9=0, $10=0, $11=0, $12=0, $13=0, $14=0, $15=0, $16=0, $17=0, $18=0, $19=2, $plan=2, $sensitivity=-100dBm, $20=0, $21=0"
attr iterationvars2 "$0=5000, $1=5000, $2=5000, $3=5000, $4=5000, $5=5000, $6=5000, $7=5000, $8=5000, $9=0, $10=0, $11=0, $12=0, $13=0, $14=0, $15=0, $16=0, $17=0, $18=0, $19=2, $plan=2, $sensitivity=-100dBm, $20=0, $21=0, $repetition=0"
attr measurement "$0=5000, $1=5000, $2=5000, $3=5000, $4=5000, $5=5000, $6=5000, $7=5000, $8=5000, $9=0, $10=0, $11=0, $12=0, $13=0, $14=0, $15=0, $16=0, $17=0, $18=0, $19=2, $plan=2, $sensitivity=-100dBm, $20=0, $21=0"
attr network Forest
attr plan 2
attr processid 14483
attr repetition 0
attr replication #0
attr resultdir results
attr runnumber 1
attr seedset 1
attr sensitivity -100dBm

vector 7  Forest.networkOne[0].batteryStats  capacity  ETV
attr unit  mW-s
vector 8  Forest.networkOne[0].batteryStats  capacity(relative)  ETV
vector 9  Forest.networkOne[0].batteryStats  estimate  ETV
attr unit  mW-s
vector 10  Forest.networkOne[0].batteryStats  estimate(relative)  ETV
vector 19  Forest.networkOne[1].batteryStats  capacity  ETV
attr unit  mW-s
vector 20  Forest.networkOne[1].batteryStats  capacity(relative)  ETV
vector 21  Forest.networkOne[1].batteryStats  estimate  ETV
attr unit  mW-s
vector 22  Forest.networkOne[1].batteryStats  estimate(relative)  ETV
vector 31  Forest.networkOne[2].batteryStats  capacity  ETV
attr unit  mW-s
vector 32  Forest.networkOne[2].batteryStats  capacity(relative)  ETV
vector 33  Forest.networkOne[2].batteryStats  estimate  ETV
attr unit  mW-s
vector 34  Forest.networkOne[2].batteryStats  estimate(relative)  ETV
vector 43  Forest.networkOne[3].batteryStats  capacity  ETV
attr unit  mW-s
vector 44  Forest.networkOne[3].batteryStats  capacity(relative)  ETV
vector 45  Forest.networkOne[3].batteryStats  estimate  ETV
attr unit  mW-s
vector 46  Forest.networkOne[3].batteryStats  estimate(relative)  ETV
vector 55  Forest.networkOne[4].batteryStats  capacity  ETV
attr unit  mW-s
vector 56  Forest.networkOne[4].batteryStats  capacity(relative)  ETV
vector 57  Forest.networkOne[4].batteryStats  estimate  ETV
attr unit  mW-s
vector 58  Forest.networkOne[4].batteryStats  estimate(relative)  ETV
vector 67  Forest.networkOne[5].batteryStats  capacity  ETV
attr unit  mW-s
vector 68  Forest.networkOne[5].batteryStats  capacity(relative)  ETV
vector 69  Forest.networkOne[5].batteryStats  estimate  ETV
attr unit  mW-s
vector 70  Forest.networkOne[5].batteryStats  estimate(relative)  ETV
vector 79  Forest.networkOne[6].batteryStats  capacity  ETV
attr unit  mW-s
vector 80  Forest.networkOne[6].batteryStats  capacity(relative)  ETV
vector 81  Forest.networkOne[6].batteryStats  estimate  ETV
attr unit  mW-s
vector 82  Forest.networkOne[6].batteryStats  estimate(relative)  ETV
vector 91  Forest.networkOne[7].batteryStats  capacity  ETV
attr unit  mW-s
vector 92  Forest.networkOne[7].batteryStats  capacity(relative)  ETV
vector 93  Forest.networkOne[7].batteryStats  estimate  ETV
attr unit  mW-s
vector 94  Forest.networkOne[7].batteryStats  estimate(relative)  ETV
vector 103  Forest.networkOne[8].batteryStats  capacity  ETV
attr unit  mW-s
vector 104  Forest.networkOne[8].batteryStats  capacity(relative)  ETV
vector 105  Forest.networkOne[8].batteryStats  estimate  ETV
attr unit  mW-s
vector 106  Forest.networkOne[8].batteryStats  estimate(relative)  ETV
vector 115  Forest.networkOne[9].batteryStats  capacity  ETV
attr unit  mW-s
vector 116  Forest.networkOne[9].batteryStats  capacity(relative)  ETV
vector 117  Forest.networkOne[9].batteryStats  estimate  ETV
attr unit  mW-s
vector 118  Forest.networkOne[9].batteryStats  estimate(relative)  ETV
vector 127  Forest.networkOne[10].batteryStats  capacity  ETV
attr unit  mW-s
vector 128  Forest.networkOne[10].batteryStats  capacity(relative)  ETV
vector 129  Forest.networkOne[10].batteryStats  estimate  ETV
attr unit  mW-s
vector 130  Forest.networkOne[10].batteryStats  estimate(relative)  ETV
vector 139  Forest.networkOne[11].batteryStats  capacity  ETV
attr unit  mW-s
vector 140  Forest.networkOne[11].batteryStats  capacity(relative)  ETV
vector 141  Forest.networkOne[11].batteryStats  estimate  ETV
attr unit  mW-s
vector 142  Forest.networkOne[11].batteryStats  estimate(relative)  ETV
vector 151  Forest.networkOne[12].batteryStats  capacity  ETV
attr unit  mW-s
vector 152  Forest.networkOne[12].batteryStats  capacity(relative)  ETV
vector 153  Forest.networkOne[12].batteryStats  estimate  ETV
attr unit  mW-s
vector 154  Forest.networkOne[12].batteryStats  estimate(relative)  ETV
vector 163  Forest.networkOne[13].batteryStats  capacity  ETV
attr unit  mW-s
vector 164  Forest.networkOne[13].batteryStats  capacity(relative)  ETV
vector 165  Forest.networkOne[13].batteryStats  estimate  ETV
attr unit  mW-s
vector 166  Forest.networkOne[13].batteryStats  estimate(relative)  ETV
vector 175  Forest.networkOne[14].batteryStats  capacity  ETV
attr unit  mW-s
vector 176  Forest.networkOne[14].batteryStats  capacity(relative)  ETV
vector 177  Forest.networkOne[14].batteryStats  estimate  ETV
attr unit  mW-s
vector 178  Forest.networkOne[14].batteryStats  estimate(relative)  ETV
vector 187  Forest.networkOne[15].batteryStats  capacity  ETV
attr unit  mW-s
vector 188  Forest.networkOne[15].batteryStats  capacity(relative)  ETV
vector 189  Forest.networkOne[15].batteryStats  estimate  ETV
attr unit  mW-s
vector 190  Forest.networkOne[15].batteryStats  estimate(relative)  ETV
vector 199  Forest.networkOne[16].batteryStats  capacity  ETV
attr unit  mW-s
vector 200  Forest.networkOne[16].batteryStats  capacity(relative)  ETV
vector 201  Forest.networkOne[16].batteryStats  estimate  ETV
attr unit  mW-s
vector 202  Forest.networkOne[16].batteryStats  estimate(relative)  ETV
vector 211  Forest.networkOne[17].batteryStats  capacity  ETV
attr unit  mW-s
vector 212  Forest.networkOne[17].batteryStats  capacity(relative)  ETV
vector 213  Forest.networkOne[17].batteryStats  estimate  ETV
attr unit  mW-s
vector 214  Forest.networkOne[17].batteryStats  estimate(relative)  ETV
vector 223  Forest.networkOne[18].batteryStats  capacity  ETV
attr unit  mW-s
vector 224  Forest.networkOne[18].batteryStats  capacity(relative)  ETV
vector 225  Forest.networkOne[18].batteryStats  estimate  ETV
attr unit  mW-s
vector 226  Forest.networkOne[18].batteryStats  estimate(relative)  ETV
vector 235  Forest.networkOne[19].batteryStats  capacity  ETV
attr unit  mW-s
vector 236  Forest.networkOne[19].batteryStats  capacity(relative)  ETV
vector 237  Forest.networkOne[19].batteryStats  estimate  ETV
attr unit  mW-s
vector 238  Forest.networkOne[19].batteryStats  estimate(relative)  ETV
vector 247  Forest.networkOne[20].batteryStats  capacity  ETV
attr unit  mW-s
vector 248  Forest.networkOne[20].batteryStats  capacity(relative)  ETV
vector 249  Forest.networkOne[20].batteryStats  estimate  ETV
attr unit  mW-s
vector 250  Forest.networkOne[20].batteryStats  estimate(relative)  ETV
vector 259  Forest.networkOne[21].batteryStats  capacity  ETV
attr unit  mW-s
vector 260  Forest.networkOne[21].batteryStats  capacity(relative)  ETV
vector 261  Forest.networkOne[21].batteryStats  estimate  ETV
attr unit  mW-s
vector 262  Forest.networkOne[21].batteryStats  estimate(relative)  ETV
vector 271  Forest.networkOne[22].batteryStats  capacity  ETV
attr unit  mW-s
vector 272  Forest.networkOne[22].batteryStats  capacity(relative)  ETV
vector 273  Forest.networkOne[22].batteryStats  estimate  ETV
attr unit  mW-s
vector 274  Forest.networkOne[22].batteryStats  estimate(relative)  ETV
vector 283  Forest.networkOne[23].batteryStats  capacity  ETV
attr unit  mW-s
vector 284  Forest.networkOne[23].batteryStats  capacity(relative)  ETV
vector 285  Forest.networkOne[23].batteryStats  estimate  ETV
attr unit  mW-s
vector 286  Forest.networkOne[23].batteryStats  estimate(relative)  ETV
vector 295  Forest.networkOne[24].batteryStats  capacity  ETV
attr unit  mW-s
vector 296  Forest.networkOne[24].batteryStats  capacity(relative)  ETV
vector 297  Forest.networkOne[24].batteryStats  estimate  ETV
attr unit  mW-s
vector 298  Forest.networkOne[24].batteryStats  estimate(relative)  ETV
vector 307  Forest.networkOne[25].batteryStats  capacity  ETV
attr unit  mW-s
vector 308  Forest.networkOne[25].batteryStats  capacity(relative)  ETV
vector 309  Forest.networkOne[25].batteryStats  estimate  ETV
attr unit  mW-s
vector 310  Forest.networkOne[25].batteryStats  estimate(relative)  ETV
vector 319  Forest.networkOne[26].batteryStats  capacity  ETV
attr unit  mW-s
vector 320  Forest.networkOne[26].batteryStats  capacity(relative)  ETV
vector 321  Forest.networkOne[26].batteryStats  estimate  ETV
attr unit  mW-s
vector 322  Forest.networkOne[26].batteryStats  estimate(relative)  ETV
vector 331  Forest.networkOne[27].batteryStats  capacity  ETV
attr unit  mW-s
vector 332  Forest.networkOne[27].batteryStats  capacity(relative)  ETV
vector 333  Forest.networkOne[27].batteryStats  estimate  ETV
attr unit  mW-s
vector 334  Forest.networkOne[27].batteryStats  estimate(relative)  ETV
vector 343  Forest.networkOne[28].batteryStats  capacity  ETV
attr unit  mW-s
vector 344  Forest.networkOne[28].batteryStats  capacity(relative)  ETV
vector 345  Forest.networkOne[28].batteryStats  estimate  ETV
attr unit  mW-s
vector 346  Forest.networkOne[28].batteryStats  estimate(relative)  ETV
vector 355  Forest.networkOne[29].batteryStats  capacity  ETV
attr unit  mW-s
vector 356  Forest.networkOne[29].batteryStats  capacity(relative)  ETV
vector 357  Forest.networkOne[29].batteryStats  estimate  ETV
attr unit  mW-s
vector 358  Forest.networkOne[29].batteryStats  estimate(relative)  ETV
vector 367  Forest.networkOne[30].batteryStats  capacity  ETV
attr unit  mW-s
vector 368  Forest.networkOne[30].batteryStats  capacity(relative)  ETV
vector 369  Forest.networkOne[30].batteryStats  estimate  ETV
attr unit  mW-s
vector 370  Forest.networkOne[30].batteryStats  estimate(relative)  ETV
vector 379  Forest.networkOne[31].batteryStats  capacity  ETV
attr unit  mW-s
vector 380  Forest.networkOne[31].batteryStats  capacity(relative)  ETV
vector 381  Forest.networkOne[31].batteryStats  estimate  ETV
attr unit  mW-s
vector 382  Forest.networkOne[31].batteryStats  estimate(relative)  ETV
vector 391  Forest.networkOne[32].batteryStats  capacity  ETV
attr unit  mW-s
vector 392  Forest.networkOne[32].batteryStats  capacity(relative)  ETV
vector 393  Forest.networkOne[32].batteryStats  estimate  ETV
attr unit  mW-s
vector 394  Forest.networkOne[32].batteryStats  estimate(relative)  ETV
vector 403  Forest.networkOne[33].batteryStats  capacity  ETV
attr unit  mW-s
vector 404  Forest.networkOne[33].batteryStats  capacity(relative)  ETV
vector 405  Forest.networkOne[33].batteryStats  estimate  ETV
attr unit  mW-s
vector 406  Forest.networkOne[33].batteryStats  estimate(relative)  ETV
vector 415  Forest.networkOne[34].batteryStats  capacity  ETV
attr unit  mW-s
vector 416  Forest.networkOne[34].batteryStats  capacity(relative)  ETV
vector 417  Forest.networkOne[34].batteryStats  estimate  ETV
attr unit  mW-s
vector 418  Forest.networkOne[34].batteryStats  estimate(relative)  ETV
vector 427  Forest.networkOne[35].batteryStats  capacity  ETV
attr unit  mW-s
vector 428  Forest.networkOne[35].batteryStats  capacity(relative)  ETV
vector 429  Forest.networkOne[35].batteryStats  estimate  ETV
attr unit  mW-s
vector 430  Forest.networkOne[35].batteryStats  estimate(relative)  ETV
vector 439  Forest.networkOne[36].batteryStats  capacity  ETV
attr unit  mW-s
vector 440  Forest.networkOne[36].batteryStats  capacity(relative)  ETV
vector 441  Forest.networkOne[36].batteryStats  estimate  ETV
attr unit  mW-s
vector 442  Forest.networkOne[36].batteryStats  estimate(relative)  ETV
vector 451  Forest.networkOne[37].batteryStats  capacity  ETV
attr unit  mW-s
vector 452  Forest.networkOne[37].batteryStats  capacity(relative)  ETV
vector 453  Forest.networkOne[37].batteryStats  estimate  ETV
attr unit  mW-s
vector 454  Forest.networkOne[37].batteryStats  estimate(relative)  ETV
vector 463  Forest.networkOne[38].batteryStats  capacity  ETV
attr unit  mW-s
vector 464  Forest.networkOne[38].batteryStats  capacity(relative)  ETV
vector 465  Forest.networkOne[38].batteryStats  estimate  ETV
attr unit  mW-s
vector 466  Forest.networkOne[38].batteryStats  estimate(relative)  ETV
vector 475  Forest.networkOne[39].batteryStats  capacity  ETV
attr unit  mW-s
vector 476  Forest.networkOne[39].batteryStats  capacity(relative)  ETV
vector 477  Forest.networkOne[39].batteryStats  estimate  ETV
attr unit  mW-s
vector 478  Forest.networkOne[39].batteryStats  estimate(relative)  ETV
vector 487  Forest.networkOne[40].batteryStats  capacity  ETV
attr unit  mW-s
vector 488  Forest.networkOne[40].batteryStats  capacity(relative)  ETV
vector 489  Forest.networkOne[40].batteryStats  estimate  ETV
attr unit  mW-s
vector 490  Forest.networkOne[40].batteryStats  estimate(relative)  ETV
vector 499  Forest.networkOne[41].batteryStats  capacity  ETV
attr unit  mW-s
vector 500  Forest.networkOne[41].batteryStats  capacity(relative)  ETV
vector 501  Forest.networkOne[41].batteryStats  estimate  ETV
attr unit  mW-s
vector 502  Forest.networkOne[41].batteryStats  estimate(relative)  ETV
vector 511  Forest.networkOne[42].batteryStats  capacity  ETV
attr unit  mW-s
vector 512  Forest.networkOne[42].batteryStats  capacity(relative)  ETV
vector 513  Forest.networkOne[42].batteryStats  estimate  ETV
attr unit  mW-s
vector 514  Forest.networkOne[42].batteryStats  estimate(relative)  ETV
vector 523  Forest.networkOne[43].batteryStats  capacity  ETV
attr unit  mW-s
vector 524  Forest.networkOne[43].batteryStats  capacity(relative)  ETV
vector 525  Forest.networkOne[43].batteryStats  estimate  ETV
attr unit  mW-s
vector 526  Forest.networkOne[43].batteryStats  estimate(relative)  ETV
vector 535  Forest.networkOne[44].batteryStats  capacity  ETV
attr unit  mW-s
vector 536  Forest.networkOne[44].batteryStats  capacity(relative)  ETV
vector 537  Forest.networkOne[44].batteryStats  estimate  ETV
attr unit  mW-s
vector 538  Forest.networkOne[44].batteryStats  estimate(relative)  ETV
vector 547  Forest.networkOne[45].batteryStats  capacity  ETV
attr unit  mW-s
vector 548  Forest.networkOne[45].batteryStats  capacity(relative)  ETV
vector 549  Forest.networkOne[45].batteryStats  estimate  ETV
attr unit  mW-s
vector 550  Forest.networkOne[45].batteryStats  estimate(relative)  ETV
vector 559  Forest.networkOne[46].batteryStats  capacity  ETV
attr unit  mW-s
vector 560  Forest.networkOne[46].batteryStats  capacity(relative)  ETV
vector 561  Forest.networkOne[46].batteryStats  estimate  ETV
attr unit  mW-s
vector 562  Forest.networkOne[46].batteryStats  estimate(relative)  ETV
vector 571  Forest.networkOne[47].batteryStats  capacity  ETV
attr unit  mW-s
vector 572  Forest.networkOne[47].batteryStats  capacity(relative)  ETV
vector 573  Forest.networkOne[47].batteryStats  estimate  ETV
attr unit  mW-s
vector 574  Forest.networkOne[47].batteryStats  estimate(relative)  ETV
vector 583  Forest.networkOne[48].batteryStats  capacity  ETV
attr unit  mW-s
vector 584  Forest.networkOne[48].batteryStats  capacity(relative)  ETV
vector 585  Forest.networkOne[48].batteryStats  estimate  ETV
attr unit  mW-s
vector 586  Forest.networkOne[48].batteryStats  estimate(relative)  ETV
vector 595  Forest.networkOne[49].batteryStats  capacity  ETV
attr unit  mW-s
vector 596  Forest.networkOne[49].batteryStats  capacity(relative)  ETV
vector 597  Forest.networkOne[49].batteryStats  estimate  ETV
attr unit  mW-s
vector 598  Forest.networkOne[49].batteryStats  estimate(relative)  ETV
vector 607  Forest.networkOne[50].batteryStats  capacity  ETV
attr unit  mW-s
vector 608  Forest.networkOne[50].batteryStats  capacity(relative)  ETV
vector 609  Forest.networkOne[50].batteryStats  estimate  ETV
attr unit  mW-s
vector 610  Forest.networkOne[50].batteryStats  estimate(relative)  ETV
vector 619  Forest.networkOne[51].batteryStats  capacity  ETV
attr unit  mW-s
vector 620  Forest.networkOne[51].batteryStats  capacity(relative)  ETV
vector 621  Forest.networkOne[51].batteryStats  estimate  ETV
attr unit  mW-s
vector 622  Forest.networkOne[51].batteryStats  estimate(relative)  ETV
vector 631  Forest.networkOne[52].batteryStats  capacity  ETV
attr unit  mW-s
vector 632  Forest.networkOne[52].batteryStats  capacity(relative)  ETV
vector 633  Forest.networkOne[52].batteryStats  estimate  ETV
attr unit  mW-s
vector 634  Forest.networkOne[52].batteryStats  estimate(relative)  ETV
vector 643  Forest.networkOne[53].batteryStats  capacity  ETV
attr unit  mW-s
vector 644  Forest.networkOne[53].batteryStats  capacity(relative)  ETV
vector 645  Forest.networkOne[53].batteryStats  estimate  ETV
attr unit  mW-s
vector 646  Forest.networkOne[53].batteryStats  estimate(relative)  ETV
vector 655  Forest.networkOne[54].batteryStats  capacity  ETV
attr unit  mW-s
vector 656  Forest.networkOne[54].batteryStats  capacity(relative)  ETV
vector 657  Forest.networkOne[54].batteryStats  estimate  ETV
attr unit  mW-s
vector 658  Forest.networkOne[54].batteryStats  estimate(relative)  ETV
vector 667  Forest.networkOne[55].batteryStats  capacity  ETV
attr unit  mW-s
vector 668  Forest.networkOne[55].batteryStats  capacity(relative)  ETV
vector 669  Forest.networkOne[55].batteryStats  estimate  ETV
attr unit  mW-s
vector 670  Forest.networkOne[55].batteryStats  estimate(relative)  ETV
vector 679  Forest.networkOne[56].batteryStats  capacity  ETV
attr unit  mW-s
vector 680  Forest.networkOne[56].batteryStats  capacity(relative)  ETV
vector 681  Forest.networkOne[56].batteryStats  estimate  ETV
attr unit  mW-s
vector 682  Forest.networkOne[56].batteryStats  estimate(relative)  ETV
vector 691  Forest.networkOne[57].batteryStats  capacity  ETV
attr unit  mW-s
vector 692  Forest.networkOne[57].batteryStats  capacity(relative)  ETV
vector 693  Forest.networkOne[57].batteryStats  estimate  ETV
attr unit  mW-s
vector 694  Forest.networkOne[57].batteryStats  estimate(relative)  ETV
vector 703  Forest.networkOne[58].batteryStats  capacity  ETV
attr unit  mW-s
vector 704  Forest.networkOne[58].batteryStats  capacity(relative)  ETV
vector 705  Forest.networkOne[58].batteryStats  estimate  ETV
attr unit  mW-s
vector 706  Forest.networkOne[58].batteryStats  estimate(relative)  ETV
vector 715  Forest.networkOne[59].batteryStats  capacity  ETV
attr unit  mW-s
vector 716  Forest.networkOne[59].batteryStats  capacity(relative)  ETV
vector 717  Forest.networkOne[59].batteryStats  estimate  ETV
attr unit  mW-s
vector 718  Forest.networkOne[59].batteryStats  estimate(relative)  ETV
vector 727  Forest.networkOne[60].batteryStats  capacity  ETV
attr unit  mW-s
vector 728  Forest.networkOne[60].batteryStats  capacity(relative)  ETV
vector 729  Forest.networkOne[60].batteryStats  estimate  ETV
attr unit  mW-s
vector 730  Forest.networkOne[60].batteryStats  estimate(relative)  ETV
vector 739  Forest.networkOne[61].batteryStats  capacity  ETV
attr unit  mW-s
vector 740  Forest.networkOne[61].batteryStats  capacity(relative)  ETV
vector 741  Forest.networkOne[61].batteryStats  estimate  ETV
attr unit  mW-s
vector 742  Forest.networkOne[61].batteryStats  estimate(relative)  ETV
vector 751  Forest.networkOne[62].batteryStats  capacity  ETV
attr unit  mW-s
vector 752  Forest.networkOne[62].batteryStats  capacity(relative)  ETV
vector 753  Forest.networkOne[62].batteryStats  estimate  ETV
attr unit  mW-s
vector 754  Forest.networkOne[62].batteryStats  estimate(relative)  ETV
vector 763  Forest.networkOne[63].batteryStats  capacity  ETV
attr unit  mW-s
vector 764  Forest.networkOne[63].batteryStats  capacity(relative)  ETV
vector 765  Forest.networkOne[63].batteryStats  estimate  ETV
attr unit  mW-s
vector 766  Forest.networkOne[63].batteryStats  estimate(relative)  ETV
vector 775  Forest.networkOne[64].batteryStats  capacity  ETV
attr unit  mW-s
vector 776  Forest.networkOne[64].batteryStats  capacity(relative)  ETV
vector 777  Forest.networkOne[64].batteryStats  estimate  ETV
attr unit  mW-s
vector 778  Forest.networkOne[64].batteryStats  estimate(relative)  ETV
vector 787  Forest.networkOne[65].batteryStats  capacity  ETV
attr unit  mW-s
vector 788  Forest.networkOne[65].batteryStats  capacity(relative)  ETV
vector 789  Forest.networkOne[65].batteryStats  estimate  ETV
attr unit  mW-s
vector 790  Forest.networkOne[65].batteryStats  estimate(relative)  ETV
vector 799  Forest.networkOne[66].batteryStats  capacity  ETV
attr unit  mW-s
vector 800  Forest.networkOne[66].batteryStats  capacity(relative)  ETV
vector 801  Forest.networkOne[66].batteryStats  estimate  ETV
attr unit  mW-s
vector 802  Forest.networkOne[66].batteryStats  estimate(relative)  ETV
vector 811  Forest.networkOne[67].batteryStats  capacity  ETV
attr unit  mW-s
vector 812  Forest.networkOne[67].batteryStats  capacity(relative)  ETV
vector 813  Forest.networkOne[67].batteryStats  estimate  ETV
attr unit  mW-s
vector 814  Forest.networkOne[67].batteryStats  estimate(relative)  ETV
vector 823  Forest.networkOne[68].batteryStats  capacity  ETV
attr unit  mW-s
vector 824  Forest.networkOne[68].batteryStats  capacity(relative)  ETV
vector 825  Forest.networkOne[68].batteryStats  estimate  ETV
attr unit  mW-s
vector 826  Forest.networkOne[68].batteryStats  estimate(relative)  ETV
vector 835  Forest.networkOne[69].batteryStats  capacity  ETV
attr unit  mW-s
vector 836  Forest.networkOne[69].batteryStats  capacity(relative)  ETV
vector 837  Forest.networkOne[69].batteryStats  estimate  ETV
attr unit  mW-s
vector 838  Forest.networkOne[69].batteryStats  estimate(relative)  ETV
vector 847  Forest.networkOne[70].batteryStats  capacity  ETV
attr unit  mW-s
vector 848  Forest.networkOne[70].batteryStats  capacity(relative)  ETV
vector 849  Forest.networkOne[70].batteryStats  estimate  ETV
attr unit  mW-s
vector 850  Forest.networkOne[70].batteryStats  estimate(relative)  ETV
vector 859  Forest.networkOne[71].batteryStats  capacity  ETV
attr unit  mW-s
vector 860  Forest.networkOne[71].batteryStats  capacity(relative)  ETV
vector 861  Forest.networkOne[71].batteryStats  estimate  ETV
attr unit  mW-s
vector 862  Forest.networkOne[71].batteryStats  estimate(relative)  ETV
vector 871  Forest.networkOne[72].batteryStats  capacity  ETV
attr unit  mW-s
vector 872  Forest.networkOne[72].batteryStats  capacity(relative)  ETV
vector 873  Forest.networkOne[72].batteryStats  estimate  ETV
attr unit  mW-s
vector 874  Forest.networkOne[72].batteryStats  estimate(relative)  ETV
vector 883  Forest.networkOne[73].batteryStats  capacity  ETV
attr unit  mW-s
vector 884  Forest.networkOne[73].batteryStats  capacity(relative)  ETV
vector 885  Forest.networkOne[73].batteryStats  estimate  ETV
attr unit  mW-s
vector 886  Forest.networkOne[73].batteryStats  estimate(relative)  ETV
vector 895  Forest.networkOne[74].batteryStats  capacity  ETV
attr unit  mW-s
vector 896  Forest.networkOne[74].batteryStats  capacity(relative)  ETV
vector 897  Forest.networkOne[74].batteryStats  estimate  ETV
attr unit  mW-s
vector 898  Forest.networkOne[74].batteryStats  estimate(relative)  ETV
vector 907  Forest.networkOne[75].batteryStats  capacity  ETV
attr unit  mW-s
vector 908  Forest.networkOne[75].batteryStats  capacity(relative)  ETV
vector 909  Forest.networkOne[75].batteryStats  estimate  ETV
attr unit  mW-s
vector 910  Forest.networkOne[75].batteryStats  estimate(relative)  ETV
vector 919  Forest.networkOne[76].batteryStats  capacity  ETV
attr unit  mW-s
vector 920  Forest.networkOne[76].batteryStats  capacity(relative)  ETV
vector 921  Forest.networkOne[76].batteryStats  estimate  ETV
attr unit  mW-s
vector 922  Forest.networkOne[76].batteryStats  estimate(relative)  ETV
vector 931  Forest.networkOne[77].batteryStats  capacity  ETV
attr unit  mW-s
vector 932  Forest.networkOne[77].batteryStats  capacity(relative)  ETV
vector 933  Forest.networkOne[77].batteryStats  estimate  ETV
attr unit  mW-s
vector 934  Forest.networkOne[77].batteryStats  estimate(relative)  ETV
vector 943  Forest.networkOne[78].batteryStats  capacity  ETV
attr unit  mW-s
vector 944  Forest.networkOne[78].batteryStats  capacity(relative)  ETV
vector 945  Forest.networkOne[78].batteryStats  estimate  ETV
attr unit  mW-s
vector 946  Forest.networkOne[78].batteryStats  estimate(relative)  ETV
vector 955  Forest.networkOne[79].batteryStats  capacity  ETV
attr unit  mW-s
vector 956  Forest.networkOne[79].batteryStats  capacity(relative)  ETV
vector 957  Forest.networkOne[79].batteryStats  estimate  ETV
attr unit  mW-s
vector 958  Forest.networkOne[79].batteryStats  estimate(relative)  ETV
vector 967  Forest.networkOne[80].batteryStats  capacity  ETV
attr unit  mW-s
vector 968  Forest.networkOne[80].batteryStats  capacity(relative)  ETV
vector 969  Forest.networkOne[80].batteryStats  estimate  ETV
attr unit  mW-s
vector 970  Forest.networkOne[80].batteryStats  estimate(relative)  ETV
vector 979  Forest.networkOne[0].appl  rawLatencies  ETV
attr unit  s
vector 1058  Forest.networkOne[10].netwl  nextHopSelectionForSink  ETV
vector 1274  Forest.networkOne[37].netwl  nextHopSelectionForSink  ETV
vector 1106  Forest.networkOne[16].netwl  nextHopSelectionForSink  ETV
vector 1298  Forest.networkOne[40].netwl  nextHopSelectionForSink  ETV
vector 1514  Forest.networkOne[67].netwl  nextHopSelectionForSink  ETV
vector 1538  Forest.networkOne[70].netwl  nextHopSelectionForSink  ETV
7	0	0	10800000
7	140292	60	10796667.840099
7	308483	120	10793283.840099
7	478544	180	10789899.840099
7	633570	240	10786515.840099
7	797703	300	10783131.840099
7	951552	360	10779747.840099
7	1113552	420	10776363.840099
7	1282646	480	10772979.840099
7	1441486	540	10769595.840099
7	1605298	600	10766211.840099
7	1766236	660	10762827.840099
7	1925003	720	10759443.840099
7	2089249	780	10756059.840099
7	2247771	840	10752675.840099
7	2407618	900	10749291.840099
7	2578866	960	10745907.840099
7	2745612	1020	10742523.840099
7	2914287	1080	10739139.840099
7	3079211	1140	10735755.840099
7	3250207	1200	10732371.840099
7	3409660	1260	10728987.844534
7	3572112	1320	10725603.844534
7	3738951	1380	10722219.844534
7	3905172	1440	10718835.844534
7	4067666	1500	10715451.844534
7	4238037	1560	10712067.844534
7	4395825	1620	10708683.844534
7	4556823	1680	10705299.844534
7	4729520	1740	10701915.844534
7	4895983	1800	10698531.844534
7	5060789	1860	10695147.844534
7	5232693	1920	10691763.844534
7	5393476	1980	10688379.844534
7	5551017	2040	10684995.844534
7	5711595	2100	10681611.844534
7	5888955	2160	10678227.844534
7	6047448	2220	10674843.844534
7	6216232	2280	10671459.844534
7	6377585	2340	10668075.844534
7	6542603	2400	10664691.844534
7	6702640	2460	10661307.84897
7	6871126	2520	10657923.84897
7	7044710	2580	10654539.84897
7	7203121	2640	10651155.84897
7	7363162	2700	10647771.84897
7	7531468	2760	10644387.84897
7	7693774	2820	10641003.84897
7	7857248	2880	10637619.84897
7	8013065	2940	10634235.84897
7	8172029	3000	10630851.84897
7	8337382	3060	10627467.84897
7	8508106	3120	10624083.84897
7	8676106	3180	10620699.84897
7	8838300	3240	10617315.84897
7	8999254	3300	10613931.84897
7	9165408	3360	10610547.84897
7	9338082	3420	10607163.84897
7	9501689	3480	10603779.84897
7	9655475	3540	10600395.84897
7	9840849	3600	10597011.84897
7	10007758	3660	10593627.853405
7	10167899	3720	10590243.853405
7	10343120	3780	10586859.853405
7	10509951	3840	10583475.853405
7	10679455	3900	10580091.853405
7	10857177	3960	10576707.853405
7	11021222	4020	10573323.853405
7	11182885	4080	10569939.853405
7	11351096	4140	10566555.853405
7	11520789	4200	10563171.853405
7	11691985	4260	10559787.853405
7	11856602	4320	10556403.853405
7	12024476	4380	10553019.853405
7	12201855	4440	10549635.853405
7	12364403	4500	10546251.853405
7	12529336	4560	10542867.853405
7	12683548	4620	10539483.853405
7	12858098	4680	10536099.853405
7	13029662	4740	10532715.853405
7	13185220	4800	10529331.853405
7	13351182	4860	10525947.85784
7	13512079	4920	10522563.85784
7	13624375	4980	10519179.85784
8	0	0	1
8	140292	60	0.99969146667584
8	308483	120	0.99937813334251
8	478544	180	0.99906480000918
8	633570	240	0.99875146667584
8	797703	300	0.99843813334251
8	951552	360	0.99812480000918
8	1113552	420	0.99781146667584
8	1282646	480	0.99749813334251
8	1441486	540	0.99718480000918
8	1605298	600	0.99687146667584
8	1766236	660	0.99655813334251
8	1925003	720	0.99624480000918
8	2089249	780	0.99593146667584
8	2247771	840	0.99561813334251
8	2407618	900	0.99530480000918
8	2578866	960	0.99499146667584
8	2745612	1020	0.99467813334251
8	2914287	1080	0.99436480000918
8	3079211	1140	0.99405146667584
8	3250207	1200	0.99373813334251
8	3409660	1260	0.99342480041984
8	3572112	1320	0.99311146708651
8	3738951	1380	0.99279813375318
8	3905172	1440	0.99248480041984
8	4067666	1500	0.99217146708651
8	4238037	1560	0.99185813375318
8	4395825	1620	0.99154480041984
8	4556823	1680	0.99123146708651
8	4729520	1740	0.99091813375318
8	4895983	1800	0.99060480041984
8	5060789	1860	0.99029146708651
8	5232693	1920	0.98997813375318
8	5393476	1980	0.98966480041984
8	5551017	2040	0.98935146708651
8	5711595	2100	0.98903813375318
8	5888955	2160	0.98872480041984
8	6047448	2220	0.98841146708651
8	6216232	2280	0.98809813375318
8	6377585	2340	0.98778480041984
8	6542603	2400	0.98747146708651
8	6702640	2460	0.98715813416384
8	6871126	2520	0.98684480083051
8	7044710	2580	0.98653146749718
8	7203121	2640	0.98621813416384
8	7363162	2700	0.98590480083051
8	7531468	2760	0.98559146749718
8	7693774	2820	0.98527813416384
8	7857248	2880	0.98496480083051
8	8013065	2940	0.98465146749718
8	8172029	3000	0.98433813416384
8	8337382	3060	0.98402480083051
8	8508106	3120	0.98371146749718
8	8676106	3180	0.98339813416384