version 2
run P2P-2-20130702-15:39:45-10835
attr configname P2P
attr datetime 20130702-15:39:45
attr experiment P2P
attr inifile omnetpp.ini
attr iterationvars "$0=5000, $1=0, $plan=3, $sensitivity=-94dBm, $2=0"
attr iterationvars2 "$0=5000, $1=0, $plan=3, $sensitivity=-94dBm, $2=0, $repetition=0"
attr measurement "$0=5000, $1=0, $plan=3, $sensitivity=-94dBm, $2=0"
attr network Forest
attr plan 3
attr processid 10835
attr repetition 0
attr replication #0
attr resultdir results
attr runnumber 2
attr seedset 2
attr sensitivity -94dBm

vector 7  Forest.networkOne[0].batteryStats  capacity  ETV
attr unit  mW-s
vector 8  Forest.networkOne[0].batteryStats  capacity(relative)  ETV
vector 9  Forest.networkOne[0].batteryStats  estimate  ETV
attr unit  mW-s
vector 10  Forest.networkOne[0].batteryStats  estimate(relative)  ETV
vector 19  Forest.networkOne[1].batteryStats  capacity  ETV
attr unit  mW-s
vector 20  Forest.networkOne[1].batteryStats  capacity(relative)  ETV
vector 21  Forest.networkOne[1].batteryStats  estimate  ETV
attr unit  mW-s
vector 22  Forest.networkOne[1].batteryStats  estimate(relative)  ETV
vector 31  Forest.networkTwo[0].batteryStats  capacity  ETV
attr unit  mW-s
vector 32  Forest.networkTwo[0].batteryStats  capacity(relative)  ETV
vector 33  Forest.networkTwo[0].batteryStats  estimate  ETV
attr unit  mW-s
vector 34  Forest.networkTwo[0].batteryStats  estimate(relative)  ETV
vector 43  Forest.networkTwo[1].batteryStats  capacity  ETV
attr unit  mW-s
vector 44  Forest.networkTwo[1].batteryStats  capacity(relative)  ETV
vector 45  Forest.networkTwo[1].batteryStats  estimate  ETV
attr unit  mW-s
vector 46  Forest.networkTwo[1].batteryStats  estimate(relative)  ETV
vector 55  Forest.networkOne[0].applSensor  rawLatencies  ETV
attr unit  s
vector 71  Forest.networkTwo[0].applSensor  rawLatencies  ETV
attr unit  s
vector 78  Forest.networkTwo[1].netwl  nextHopSelectionForSink  ETV
7	0	0	10800000
7	2327	60	10796615.950435
7	5311	120	10793231.896435
7	7911	180	10789847.842435
7	10511	240	10786463.788435
7	13399	300	10783079.734435
7	15787	360	10779695.680435
7	18817	420	10776311.626435
7	22033	480	10772927.572435
7	24681	540	10769543.518435
7	27881	600	10766159.464435
7	30385	660	10762775.410435
7	33201	720	10759391.356435
7	35609	780	10756007.302435
7	38041	840	10752623.248435
7	40953	900	10749239.194435
7	43841	960	10745855.140435
7	46657	1020	10742471.086435
7	49209	1080	10739087.032435
7	51833	1140	10735702.978435
7	54691	1200	10732318.924435
7	57237	1260	10728934.87487
7	59477	1320	10725550.82087
7	61645	1380	10722166.76687
7	64389	1440	10718782.71287
7	67061	1500	10715398.65887
7	69589	1560	10712014.60487
7	72429	1620	10708630.55087
7	75029	1680	10705246.49687
7	77509	1740	10701862.44287
7	80589	1800	10698478.38887
7	83143	1860	10695094.33487
7	85861	1920	10691710.28087
7	88557	1980	10688326.22687
7	91565	2040	10684942.17287
7	94117	2100	10681558.11887
7	96087	2160	10678174.06487
7	98209	2220	10674790.01087
7	101095	2280	10671405.95687
7	103815	2340	10668021.90287
7	106895	2400	10664637.84887
7	109441	2460	10661253.799306
7	112667	2520	10657869.745306
7	115289	2580	10654485.691306
7	118081	2640	10651101.637306
7	120531	2700	10647717.583306
7	122987	2760	10644333.529306
7	125157	2820	10640949.475306
7	127659	2880	10637565.421306
7	130571	2940	10634181.367306
7	133435	3000	10630797.313306
7	135917	3060	10627413.259306
7	138395	3120	10624029.205306
7	141043	3180	10620645.151306
7	143955	3240	10617261.097306
7	146579	3300	10613877.043306
7	149491	3360	10610492.989306
7	152021	3420	10607108.935306
7	154859	3480	10603724.881306
7	157555	3540	10600340.827306
7	160443	3600	10596956.773306
7	162413	3660	10593572.723741
7	165039	3720	10590188.669741
7	167759	3780	10586804.615741
7	170165	3840	10583420.561741
7	173125	3900	10580036.507741
7	175581	3960	10576652.453741
7	178229	4020	10573268.399741
7	181279	4080	10569884.345741
7	184047	4140	10566500.291741
7	186911	4200	10563116.237741
7	189223	4260	10559732.183741
7	191849	4320	10556348.129741
7	194447	4380	10552964.075741
7	196951	4440	10549580.021741
7	199569	4500	10546195.967741
7	202121	4560	10542811.913741
7	204505	4620	10539427.859741
7	207105	4680	10536043.805741
7	209633	4740	10532659.751741
7	212065	4800	10529275.697741
7	214587	4860	10525891.648176
7	217331	4920	10522507.594176
7	220051	4980	10519123.540176
8	0	0	1
8	2327	60	0.99968666207733
8	5311	120	0.999373323744
8	7911	180	0.99905998541067
8	10511	240	0.99874664707733
8	13399	300	0.998433308744
8	15787	360	0.99811997041067
8	18817	420	0.99780663207733
8	22033	480	0.997493293744
8	24681	540	0.99717995541067
8	27881	600	0.99686661707733
8	30385	660	0.996553278744
8	33201	720	0.99623994041067
8	35609	780	0.99592660207733
8	38041	840	0.995613263744
8	40953	900	0.99529992541067
8	43841	960	0.99498658707733
8	46657	1020	0.994673248744
8	49209	1080	0.99435991041067
8	51833	1140	0.99404657207733
8	54691	1200	0.993733233744
8	57237	1260	0.99341989582133
8	59477	1320	0.993106557488
8	61645	1380	0.99279321915467
8	64389	1440	0.99247988082133
8	67061	1500	0.992166542488
8	69589	1560	0.99185320415467
8	72429	1620	0.99153986582133
8	75029	1680	0.991226527488
8	77509	1740	0.99091318915467
8	80589	1800	0.99059985082133
8	83143	1860	0.990286512488
8	85861	1920	0.98997317415467
8	88557	1980	0.98965983582133
8	91565	2040	0.989346497488
8	94117	2100	0.98903315915467
8	96087	2160	0.98871982082133
8	98209	2220	0.988406482488
8	101095	2280	0.98809314415467
8	103815	2340	0.98777980582133
8	106895	2400	0.987466467488
8	109441	2460	0.98715312956533
8	112667	2520	0.986839791232
8	115289	2580	0.98652645289867
8	118081	2640	0.98621311456533
8	120531	2700	0.985899776232
8	122987	2760	0.98558643789867
8	125157	2820	0.98527309956533
8	127659	2880	0.984959761232
8	130571	2940	0.98464642289867
8	133435	3000	0.98433308456533
8	135917	3060	0.984019746232
8	138395	3120	0.98370640789867
8	141043	3180	0.98339306956534
8	143955	3240	0.983079731232
8	146579	3300	0.98276639289867
8	149491	3360	0.98245305456534
8	152021	3420	0.982139716232
8	154859	3480	0.98182637789867
8	157555	3540	0.98151303956534
8	160443	3600	0.981199701232
8	162413	3660	0.98088636330934
8	165039	3720	0.980573024976
8	167759	3780	0.98025968664267
8	170165	3840	0.97994634830934
8	173125	3900	0.979633009976
8	175581	3960	0.97931967164267
8	178229	4020	0.97900633330934
8	181279	4080	0.978692994976
8	184047	4140	0.97837965664267
8	186911	4200	0.97806631830934
8	189223	4260	0.977752979976
8	191849	4320	0.97743964164267
8	194447	4380	0.97712630330934
8	196951	4440	0.976812964976
8	199569	4500	0.97649962664267
8	202121	4560	0.97618628830934
8	204505	4620	0.975872949976
8	207105	4680	0.97555961164267
8	209633	4740	0.97524627330934
8	212065	4800	0.974932934976
8	214587	4860	0.97461959705334
8	217331	4920	0.97430625872
8	220051	4980	0.97399292038667
9	0	0	10800000
9	2327	60	10796615.950435
9	5311	120	10793231.896435
9	7911	180	10789847.842435
9	10511	240	10786463.788435
9	13399	300	10783079.734435
9	15787	360	10779695.680435
9	18817	420	10776311.626435
9	22033	480	10772927.572435
9	24681	540	10769543.518435
9	27881	600	10766159.464435
9	30385	660	10762775.410435
9	33201	720	10759391.356435
9	35609	780	10756007.302435
9	38041	840	10752623.248435
9	40953	900	10749239.194435
9	43841	960	10745855.140435
9	46657	1020	10742471.086435
9	49209	1080	10739087.032435
9	51833	1140	10735702.978435
9	54691	1200	10732318.924435
9	57237	1260	10728934.87487
9	59477	1320	10725550.82087
9	61645	1380	10722166.76687
9	64389	1440	10718782.71287
9	67061	1500	10715398.65887
9	69589	1560	10712014.60487
9	72429	1620	10708630.55087
9	75029	1680	10705246.49687
9	77509	1740	10701862.44287
9	80589	1800	10698478.38887
9	83143	1860	10695094.33487
9	85861	1920	10691710.28087
9	88557	1980	10688326.22687
9	91565	2040	10684942.17287
9	94117	2100	10681558.11887
9	96087	2160	10678174.06487
9	98209	2220	10674790.01087
9	101095	2280	10671405.95687
9	103815	2340	10668021.90287
9	106895	2400	10664637.84887
9	109441	2460	10661253.799306
9	112667	2520	10657869.745306
9	115289	2580	10654485.691306
9	118081	2640	10651101.637306
9	120531	2700	10647717.583306
9	122987	2760	10644333.529306
9	125157	2820	10640949.475306
9	127659	2880	10637565.421306
9	130571	2940	10634181.367306
9	133435	3000	10630797.313306
9	135917	3060	10627413.259306
9	138395	3120	10624029.205306
9	141043	3180	10620645.151306
9	143955	3240	10617261.097306
9	146579	3300	10613877.043306
9	149491	3360	10610492.989306
9	152021	3420	10607108.935306
9	154859	3480	10603724.881306
9	157555	3540	10600340.827306
9	160443	3600	10596956.773306
9	162413	3660	10593572.723741
9	165039	3720	10590188.669741
9	167759	3780	10586804.615741
9	170165	3840	10583420.561741
9	173125	3900	10580036.507741
9	175581	3960	10576652.453741
9	178229	4020	10573268.399741
9	181279	4080	10569884.345741
9	184047	4140	10566500.291741
9	186911	4200	10563116.237741
9	189223	4260	10559732.183741
9	191849	4320	10556348.129741
9	194447	4380	10552964.075741
9	196951	4440	10549580.021741
9	199569	4500	10546195.967741
9	202121	4560	10542811.913741
9	204505	4620	10539427.859741
9	207105	4680	10536043.805741
9	209633	4740	10532659.751741
9	212065	4800	10529275.697741
9	214587	4860	10525891.648176
9	217331	4920	10522507.594176
9	220051	4980	10519123.540176
10	0	0	1
10	2327	60	0.99968666207733
10	5311	120	0.999373323744
10	7911	180	0.99905998541067
10	10511	240	0.99874664707733
10	13399	300	0.998433308744
10	15787	360	0.99811997041067
10	18817	420	0.99780663207733
10	22033	480	0.997493293744
10	24681	540	0.99717995541067
10	27881	600	0.99686661707733
10	30385	660	0.996553278744
10	33201	720	0.99623994041067
10	35609	780	0.99592660207733
10	38041	840	0.995613263744
10	40953	900	0.99529992541067
10	43841	960	0.99498658707733
10	46657	1020	0.994673248744
10	49209	1080	0.99435991041067
10	51833	1140	0.99404657207733
10	54691	1200	0.993733233744
10	57237	1260	0.99341989582133
10	59477	1320	0.993106557488
10	61645	1380	0.99279321915467
10	64389	1440	0.99247988082133
10	67061	1500	0.992166542488
10	69589	1560	0.99185320415467
10	72429	1620	0.99153986582133
10	75029	1680	0.991226527488
10	77509	1740	0.99091318915467
10	80589	1800	0.99059985082133
10	83143	1860	0.990286512488
10	85861	1920	0.98997317415467
10	88557	1980	0.98965983582133
10	91565	2040	0.989346497488
10	94117	2100	0.98903315915467
10	96087	2160	0.98871982082133
10	98209	2220	0.988406482488
10	101095	2280	0.98809314415467
10	103815	2340	0.98777980582133
10	106895	2400	0.987466467488
10	109441	2460	0.98715312956533
10	112667	2520	0.986839791232
10	115289	2580	0.98652645289867
10	118081	2640	0.98621311456533
10	120531	2700	0.985899776232
10	122987	2760	0.98558643789867
10	125157	2820	0.98527309956533
10	127659	2880	0.984959761232
10	130571	2940	0.98464642289867
10	133435	3000	0.98433308456533
10	135917	3060	0.984019746232
10	138395	3120	0.98370640789867
10	141043	3180	0.98339306956534
10	143955	3240	0.983079731232
10	146579	3300	0.98276639289867
10	149491	3360	0.98245305456534
10	152021	3420	0.982139716232
10	154859	3480	0.98182637789867
10	157555	3540	0.98151303956534
10	160443	3600	0.981199701232
10	162413	3660	0.98088636330934
10	165039	3720	0.980573024976
10	167759	3780	0.98025968664267
10	170165	3840	0.97994634830934
10	173125	3900	0.979633009976
10	175581	3960	0.97931967164267
10	178229	4020	0.97900633330934
10	181279	4080	0.978692994976
10	184047	4140	0.97837965664267
10	186911	4200	0.97806631830934
10	189223	4260	0.977752979976
10	191849	4320	0.97743964164267
10	194447	4380	0.97712630330934
10	196951	4440	0.976812964976
10	199569	4500	0.97649962664267
10	202121	4560	0.97618628830934
10	204505	4620	0.975872949976
10	207105	4680	0.97555961164267
10	209633	4740	0.97524627330934
10	212065	4800	0.974932934976
10	214587	4860	0.97461959705334
10	217331	4920	0.97430625872
10	220051	4980	0.97399292038667
19	0	0	10800000
19	2328	60	10796609.589235
19	5312	120	10793217.774571
19	7912	180	10789826.977699
19	10512	240	10786436.180827
19	13400	300	10783043.602819
19	15788	360	10779652.222546
19	18818	420	10776259.557154
19	22034	480	10772866.632139
19	24682	540	10769474.817475
19	27882	600	10766082.366691
19	30386	660	10762691.824267
19	33202	720	10759300.645723
19	35610	780	10755910.103299
19	38042	840	10752519.815323
19	40954	900	10749126.473971
19	43842	960	10745733.51429
19	46658	1020	10742343.226314
19	49210	1080	10738952.04777
19	51834	1140	10735560.614778
19	54692	1200	10732168.67289
19	57238	1260	10728778.516573
19	59478	1320	10725388.355821
19	61646	1380	10721998.067845
19	64390	1440	10718607.016525
19	67062	1500	10715216.728549
19	69590	1560	10711826.313349
19	72430	1620	10708434.371461
19	75030	1680	10705043.447365
19	77510	1740	10701652.904941
19	80590	1800	10698261.599173
19	83144	1860	10694870.971342
19	85862	1920	10691480.641549
19	88558	1980	10688090.353573
19	91566	2040	10684698.538909
19	94118	2100	10681307.614813
19	96088	2160	10677918.217405
19	98210	2220	10674528.438325
19	101096	2280	10671137.132557
19	103816	2340	10667744.808997
19	106896	2400	10664352.994333
19	109442	2460	10660962.074672
19	112668	2520	10657570.007316
19	115290	2580	10654179.844808
19	118082	2640	10650787.648472
19	120532	2700	10647396.597152
19	122988	2760	10644006.563624
19	125158	2820	10640617.991537
19	127660	2880	10637227.259911
19	130572	2940	10633835.063575
19	133436	3000	10630443.376135
19	135918	3060	10627051.434247
19	138396	3120	10623661.655167
19	141044	3180	10620269.967727
19	143956	3240	10616878.280287
19	146580	3300	10613487.483415
19	149492	3360	10610094.396511
19	152022	3420	10606703.854087
19	154860	3480	10603311.784975
19	157556	3540	10599920.606431
19	160444	3600	10596530.064007
19	162414	3660	10593141.17993
19	165040	3720	10589749.76294
19	167760	3780	10586358.312431
19	170166	3840	10582967.898746
19	173126	3900	10579574.811842
19	175582	3960	10576184.01497
19	178230	4020	10572792.32753
19	181280	4080	10569400.64009
19	184048	4140	10566009.970442
19	186912	4200	10562617.519658
19	189224	4260	10559228.376698
19	191850	4320	10555837.595464
19	194448	4380	10552447.419074
19	196952	4440	10549057.385546
19	199570	4500	10545666.588674
19	202122	4560	10542276.936818
19	204506	4620	10538886.648842
19	207106	4680	10535495.597522
19	209634	4740	10532104.291753
19	212066	4800	10528712.985985
19	214588	4860	10525322.956893
19	217332	4920	10521932.287245
19	220052	4980	10518541.872045
20	0	0	1
20	2328	60	0.99968607307733
20	5312	120	0.99937201616399
20	7912	180	0.99905805349066
20	10512	240	0.99874409081732
20	13400	300	0.99842996322398
20	15788	360	0.99811594653204
20	18818	420	0.9978018108476
20	22034	480	0.99748765112397
20	24682	540	0.99717359421063
20	27882	600	0.99685947839729
20	30386	660	0.99654553928395
20	33202	720	0.99623154127062
20	35610	780	0.99591760215728
20	38042	840	0.99560368660394
20	40954	900	0.9952894883306
20	43842	960	0.99497532539726
20	46658	1020	0.99466140984393
20	49210	1080	0.99434741183059
20	51834	1140	0.99403339025725
20	54692	1200	0.99371932156391
20	57238	1260	0.99340541820124
20	59478	1320	0.99309151442791
20	61646	1380	0.99277759887457
20	64390	1440	0.99246361264123
20	67062	1500	0.9921496970879
20	69590	1560	0.99183576975456
20	72430	1620	0.99152170106122
20	75030	1680	0.99120772660788
20	77510	1740	0.99089378749455
20	80590	1800	0.99057977770121
20	83144	1860	0.99026583067977
20	85862	1920	0.98995191125454
20	88558	1980	0.9896379957012
20	91566	2040	0.98932393878786
20	94118	2100	0.98900996433452
20	96088	2160	0.98869613124119
20	98210	2220	0.98838226280785
20	101096	2280	0.98806825301451
20	103816	2340	0.98775414898118
20	106896	2400	0.98744009206784
20	109442	2460	0.98712611802517
20	112668	2520	0.98681203771444
20	115290	2580	0.98649813377849
20	118082	2640	0.98618404152515
20	120532	2700	0.98587005529181
20	122988	2760	0.98555616329848
20	125158	2820	0.98524240662384
20	127660	2880	0.9849284499918
20	130572	2940	0.98461435773847
20	133436	3000	0.98430031260513
20	135918	3060	0.98398624391179
20	138396	3120	0.98367237547846
20	141044	3180	0.98335833034512
20	143956	3240	0.98304428521178
20	146580	3300	0.98273032253845
20	149492	3360	0.98241614782511
20	152022	3420	0.98210220871177
20	154860	3480	0.98178812823844
20	157556	3540	0.9814741302251
20	160444	3600	0.98116019111176
20	162414	3660	0.98084640554909
20	165040	3720	0.98053238545743
20	167760	3780	0.98021836226216
20	170166	3840	0.97990443506908
20	173126	3900	0.97959026035574
20	175582	3960	0.9792762976824
20	178230	4020	0.97896225254907
20	181280	4080	0.97864820741573
20	184048	4140	0.97833425652239
20	186912	4200	0.97802014070905
20	189224	4260	0.97770633117572
20	191850	4320	0.97739236995041
20	194448	4380	0.97707846472904
20	196952	4440	0.97676457273571
20	199570	4500	0.97645061006237
20	202122	4560	0.97613675340904
20	204506	4620	0.9758228378557
20	207106	4680	0.97550885162236
20	209634	4740	0.97519484182903
20	212066	4800	0.97488083203569
20	214588	4860	0.97456694045302
20	217332	4920	0.97425298955968
20	220052	4980	0.97393906222634
21	0	0	10800000
21	2328	60	10796609.589235
21	5312	120	10793217.774571
21	7912	180	10789826.977699
21	10512	240	10786436.180827
21	13400	300	10783043.602819
21	15788	360	10779652.222546
21	18818	420	10776259.557154
21	22034	480	10772866.632139
21	24682	540	10769474.817475
21	27882	600	10766082.366691
21	30386	660	10762691.824267
21	33202	720	10759300.645723
21	35610	780	10755910.103299
21	38042	840	10752519.815323
21	40954	900	10749126.473971
21	43842	960	10745733.51429
21	46658	1020	10742343.226314
21	49210	1080	10738952.04777
21	51834	1140	10735560.614778
21	54692	1200	10732168.67289
21	57238	1260	10728778.516573
21	59478	1320	10725388.355821
21	61646	1380	10721998.067845
21	64390	1440	10718607.016525
21	67062	1500	10715216.728549
21	69590	1560	10711826.313349
21	72430	1620	10708434.371461
21	75030	1680	10705043.447365
21	77510	1740	10701652.904941
21	80590	1800	10698261.599173
21	83144	1860	10694870.971342
21	85862	1920	10691480.641549
21	88558	1980	10688090.353573
21	91566	2040	10684698.538909
21	94118	2100	10681307.614813
21	96088	2160	10677918.217405
21	98210	2220	10674528.438325
21	101096	2280	10671137.132557
21	103816	2340	10667744.808997
21	106896	2400	10664352.994333
21	109442	2460	10660962.074672
21	112668	2520	10657570.007316
21	115290	2580	10654179.844808
21	118082	2640	10650787.648472
21	120532	2700	10647396.597152
21	122988	2760	10644006.563624
21	125158	2820	10640617.991537
21	127660	2880	10637227.259911
21	130572	2940	10633835.063575
21	133436	3000	10630443.376135
21	135918	3060	10627051.434247
21	138396	3120	10623661.655167
21	141044	3180	10620269.967727
21	143956	3240	10616878.280287
21	146580	3300	10613487.483415
21	149492	3360	10610094.396511
21	152022	3420	10606703.854087
21	154860	3480	10603311.784975
21	157556	3540	10599920.606431
21	160444	3600	10596530.064007
21	162414	3660	10593141.17993
21	165040	3720	10589749.76294
21	167760	3780	10586358.312431
21	170166	3840	10582967.898746
21	173126	3900	10579574.811842
21	175582	3960	10576184.01497
21	178230	4020	10572792.32753
21	181280	4080	10569400.64009
21	184048	4140	10566009.970442
21	186912	4200	10562617.519658
21	189224	4260	10559228.376698
21	191850	4320	10555837.595464
21	194448	4380	10552447.419074
21	196952	4440	10549057.385546
21	199570	4500	10545666.588674
21	202122	4560	10542276.936818
21	204506	4620	10538886.648842
21	207106	4680	10535495.597522
21	209634	4740	10532104.291753
21	212066	4800	10528712.985985
21	214588	4860	10525322.956893
21	217332	4920	10521932.287245
21	220052	4980	10518541.872045
22	0	0	1
22	2328	60	0.99968607307733
22	5312	120	0.99937201616399
22	7912	180	0.99905805349066
22	10512	240	0.99874409081732
22	13400	300	0.99842996322398
22	15788	360	0.99811594653204
22	18818	420	0.9978018108476
22	22034	480	0.99748765112397
22	24682	540	0.99717359421063
22	27882	600	0.99685947839729
22	30386	660	0.99654553928395
22	33202	720	0.99623154127062
22	35610	780	0.99591760215728
22	38042	840	0.99560368660394
22	40954	900	0.9952894883306
22	43842	960	0.99497532539726
22	46658	1020	0.99466140984393
22	49210	1080	0.99434741183059
22	51834	1140	0.99403339025725
22	54692	1200	0.99371932156391
22	57238	1260	0.99340541820124
22	59478	1320	0.99309151442791
22	61646	1380	0.99277759887457
22	64390	1440	0.99246361264123
22	67062	1500	0.9921496970879
22	69590	1560	0.99183576975456
22	72430	1620	0.99152170106122
22	75030	1680	0.99120772660788
22	77510	1740	0.99089378749455
22	80590	1800	0.99057977770121
22	83144	1860	0.99026583067977
22	85862	1920	0.98995191125454
22	88558	1980	0.9896379957012
22	91566	2040	0.98932393878786
22	94118	2100	0.98900996433452
22	96088	2160	0.98869613124119
22	98210	2220	0.98838226280785
22	101096	2280	0.98806825301451
22	103816	2340	0.98775414898118
22	106896	2400	0.98744009206784
22	109442	2460	0.98712611802517
22	112668	2520	0.98681203771444
22	115290	2580	0.98649813377849
22	118082	2640	0.98618404152515
22	120532	2700	0.98587005529181
22	122988	2760	0.98555616329848
22	125158	2820	0.98524240662384
22	127660	2880	0.9849284499918
22	130572	2940	0.98461435773847
22	133436	3000	0.98430031260513
22	135918	3060	0.98398624391179
22	138396	3120	0.98367237547846
22	141044	3180	0.98335833034512
22	143956	3240	0.98304428521178
22	146580	3300	0.98273032253845
22	149492	3360	0.98241614782511
22	152022	3420	0.98210220871177
22	154860	3480	0.98178812823844
22	157556	3540	0.9814741302251
22	160444	3600	0.98116019111176
22	162414	3660	0.98084640554909
22	165040	3720	0.98053238545743
22	167760	3780	0.98021836226216
22	170166	3840	0.97990443506908
22	173126	3900	0.97959026035574
22	175582	3960	0.9792762976824
22	178230	4020	0.97896225254907
22	181280	4080	0.97864820741573
22	184048	4140	0.97833425652239
22	186912	4200	0.97802014070905
22	189224	4260	0.97770633117572
22	191850	4320	0.97739236995041
22	194448	4380	0.97707846472904
22	196952	4440	0.97676457273571
22	199570	4500	0.97645061006237
22	202122	4560	0.97613675340904
22	204506	4620	0.9758228378557
22	207106	4680	0.97550885162236
22	209634	4740	0.97519484182903
22	212066	4800	0.97488083203569
22	214588	4860	0.97456694045302
22	217332	4920	0.97425298955968
22	220052	4980	0.97393906222634
31	0	0	10800000
31	2329	60	10796615.950435
31	5313	120	10793231.896435
31	7913	180	10789847.842435
31	10513	240	10786463.788435
31	13401	300	10783079.734435
31	15789	360	10779695.680435
31	18819	420	10776311.626435
31	22035	480	10772927.572435
31	24683	540	10769543.518435
31	27883	600	10766159.464435
31	30387	660	10762775.410435
31	33203	720	10759391.356435
31	35611	780	10756007.302435
31	38043	840	10752623.248435
31	40955	900	10749239.194435
31	43843	960	10745855.140435
31	46659	1020	10742471.086435
31	49211	1080	10739087.032435
31	51835	1140	10735702.978435
31	54693	1200	10732318.924435
31	57239	1260	10728934.87487
31	59479	1320	10725550.82087
31	61647	1380	10722166.76687
31	64391	1440	10718782.71287
31	67063	1500	10715398.65887
31	69591	1560	10712014.60487
31	72431	1620	10708630.55087
31	75031	1680	10705246.49687
31	77511	1740	10701862.44287
31	80591	1800	10698478.38887
31	83145	1860	10695094.33487
31	85863	1920	10691710.28087
31	88559	1980	10688326.22687
31	91567	2040	10684942.17287
31	94119	2100	10681558.11887
31	96089	2160	10678174.06487
31	98211	2220	10674790.01087
31	101097	2280	10671405.95687
31	103817	2340	10668021.90287
31	106897	2400	10664637.84887
31	109443	2460	10661253.799306
31	112669	2520	10657869.745306
31	115291	2580	10654485.691306
31	118083	2640	10651101.637306
31	120533	2700	10647717.583306
31	122989	2760	10644333.529306
31	125159	2820	10640949.475306
31	127661	2880	10637565.421306
31	130573	2940	10634181.367306
31	133437	3000	10630797.313306
31	135919	3060	10627413.259306
31	138397	3120	10624029.205306
31	141045	3180	10620645.151306
31	143957	3240	10617261.097306
31	146581	3300	10613877.043306
31	149493	3360	10610492.989306
31	152023	3420	10607108.935306
31	154861	3480	10603724.881306
31	157557	3540	10600340.827306
31	160445	3600	10596956.773306
31	162415	3660	10593572.723741
31	165041	3720	10590188.669741
31	167761	3780	10586804.615741
31	170167	3840	10583420.561741
31	173127	3900	10580036.507741
31	175583	3960	10576652.453741
31	178231	4020	10573268.399741
31	181281	4080	10569884.345741
31	184049	4140	10566500.291741
31	186913	4200	10563116.237741
31	189225	4260	10559732.183741
31	191851	4320	10556348.129741
31	194449	4380	10552964.075741
31	196953	4440	10549580.021741
31	199571	4500	10546195.967741
31	202123	4560	10542811.913741
31	204507	4620	10539427.859741
31	207107	4680	10536043.805741
31	209635	4740	10532659.751741
31	212067	4800	10529275.697741
31	214589	4860	10525891.648176
31	217333	4920	10522507.594176
31	220053	4980	10519123.540176
32	0	0	1
32	2329	60	0.99968666207733
32	5313	120	0.999373323744
32	7913	180	0.99905998541067
32	10513	240	0.99874664707733
32	13401	300	0.998433308744
32	15789	360	0.99811997041067
32	18819	420	0.99780663207733
32	22035	480	0.997493293744
32	24683	540	0.99717995541067
32	27883	600	0.99686661707733
32	30387	660	0.996553278744
32	33203	720	0.99623994041067
32	35611	780	0.99592660207733
32	38043	840	0.995613263744
32	40955	900	0.99529992541067
32	43843	960	0.99498658707733
32	46659	1020	0.994673248744
32	49211	1080	0.99435991041067
32	51835	1140	0.99404657207733
32	54693	1200	0.993733233744
32	57239	1260	0.99341989582133
32	59479	1320	0.993106557488
32	61647	1380	0.99279321915467
32	64391	1440	0.99247988082133
32	67063	1500	0.992166542488
32	69591	1560	0.99185320415467
32	72431	1620	0.99153986582133
32	75031	1680	0.991226527488
32	77511	1740	0.99091318915467
32	80591	1800	0.99059985082133
32	83145	1860	0.990286512488
32	85863	1920	0.98997317415467
32	88559	1980	0.98965983582133
32	91567	2040	0.989346497488
32	94119	2100	0.98903315915467
32	96089	2160	0.98871982082133
32	98211	2220	0.988406482488
32	101097	2280	0.98809314415467
32	103817	2340	0.98777980582133
32	106897	2400	0.987466467488
32	109443	2460	0.98715312956533
32	112669	2520	0.986839791232
32	115291	2580	0.98652645289867
32	118083	2640	0.98621311456533
32	120533	2700	0.985899776232
32	122989	2760	0.98558643789867
32	125159	2820	0.98527309956533
32	127661	2880	0.984959761232
32	130573	2940	0.98464642289867
32	133437	3000	0.98433308456533
32	135919	3060	0.984019746232
32	138397	3120	0.98370640789867
32	141045	3180	0.98339306956533
32	143957	3240	0.983079731232
32	146581	3300	0.98276639289867
32	149493	3360	0.98245305456533
32	152023	3420	0.982139716232
32	154861	3480	0.98182637789867
32	157557	3540	0.98151303956533
32	160445	3600	0.981199701232
32	162415	3660	0.98088636330933
32	165041	3720	0.980573024976
32	167761	3780	0.98025968664267
32	170167	3840	0.97994634830933
32	173127	3900	0.979633009976
32	175583	3960	0.97931967164267
32	178231	4020	0.97900633330933
32	181281	4080	0.978692994976
32	184049	4140	0.97837965664267
32	186913	4200	0.97806631830933
32	189225	4260	0.977752979976
32	191851	4320	0.97743964164267
32	194449	4380	0.97712630330934
32	196953	4440	0.976812964976
32	199571	4500	0.97649962664267
32	202123	4560	0.97618628830934
32	204507	4620	0.975872949976
32	207107	4680	0.97555961164267
32	209635	4740	0.97524627330934
32	212067	4800	0.974932934976
32	214589	4860	0.97461959705334
32	217333	4920	0.97430625872
32	220053	4980	0.97399292038667
33	0	0	10800000
33	2329	60	10796615.950435
33	5313	120	10793231.896435
33	7913	180	10789847.842435
33	10513	240	10786463.788435
33	13401	300	10783079.734435
33	15789	360	10779695.680435
33	18819	420	10776311.626435
33	22035	480	10772927.572435
33	24683	540	10769543.518435
33	27883	600	10766159.464435
33	30387	660	10762775.410435
33	33203	720	10759391.356435
33	35611	780	10756007.302435
33	38043	840	10752623.248435
33	40955	900	10749239.194435
33	43843	960	10745855.140435
33	46659	1020	10742471.086435
33	49211	1080	10739087.032435
33	51835	1140	10735702.978435
33	54693	1200	10732318.924435
33	57239	1260	10728934.87487
33	59479	1320	10725550.82087
33	61647	1380	10722166.76687
33	64391	1440	10718782.71287
33	67063	1500	10715398.65887
33	69591	1560	10712014.60487
33	72431	1620	10708630.55087
33	75031	1680	10705246.49687
33	77511	1740	10701862.44287
33	80591	1800	10698478.38887
33	83145	1860	10695094.33487
33	85863	1920	10691710.28087
33	88559	1980	10688326.22687
33	91567	2040	10684942.17287
33	94119	2100	10681558.11887
33	96089	2160	10678174.06487
33	98211	2220	10674790.01087
33	101097	2280	10671405.95687
33	103817	2340	10668021.90287
33	106897	2400	10664637.84887
33	109443	2460	10661253.799306
33	112669	2520	10657869.745306
33	115291	2580	10654485.691306
33	118083	2640	10651101.637306
33	120533	2700	10647717.583306
33	122989	2760	10644333.529306
33	125159	2820	10640949.475306
33	127661	2880	10637565.421306
33	130573	2940	10634181.367306
33	133437	3000	10630797.313306
33	135919	3060	10627413.259306
33	138397	3120	10624029.205306
33	141045	3180	10620645.151306
33	143957	3240	10617261.097306
33	146581	3300	10613877.043306
33	149493	3360	10610492.989306
33	152023	3420	10607108.935306
33	154861	3480	10603724.881306
33	157557	3540	10600340.827306
33	160445	3600	10596956.773306
33	162415	3660	10593572.723741
33	165041	3720	10590188.669741
33	167761	3780	10586804.615741
33	170167	3840	10583420.561741
33	173127	3900	10580036.507741
33	175583	3960	10576652.453741
33	178231	4020	10573268.399741
33	181281	4080	10569884.345741
33	184049	4140	10566500.291741
33	186913	4200	10563116.237741
33	189225	4260	10559732.183741
33	191851	4320	10556348.129741
33	194449	4380	10552964.075741
33	196953	4440	10549580.021741
33	199571	4500	10546195.967741
33	202123	4560	10542811.913741
33	204507	4620	10539427.859741
33	207107	4680	10536043.805741
33	209635	4740	10532659.751741
33	212067	4800	10529275.697741
33	214589	4860	10525891.648176
33	217333	4920	10522507.594176
33	220053	4980	10519123.540176
34	0	0	1
34	2329	60	0.99968666207733
34	5313	120	0.999373323744
34	7913	180	0.99905998541067
34	10513	240	0.99874664707733
34	13401	300	0.998433308744
34	15789	360	0.99811997041067
34	18819	420	0.99780663207733
34	22035	480	0.997493293744
34	24683	540	0.99717995541067
34	27883	600	0.99686661707733
34	30387	660	0.996553278744
34	33203	720	0.99623994041067
34	35611	780	0.99592660207733