version 2
run P2P-1-20130702-15:39:45-10834
attr configname P2P
attr datetime 20130702-15:39:45
attr experiment P2P
attr inifile omnetpp.ini
attr iterationvars "$0=5000, $1=0, $plan=2, $sensitivity=-94dBm, $2=0"
attr iterationvars2 "$0=5000, $1=0, $plan=2, $sensitivity=-94dBm, $2=0, $repetition=0"
attr measurement "$0=5000, $1=0, $plan=2, $sensitivity=-94dBm, $2=0"
attr network Forest
attr plan 2
attr processid 10834
attr repetition 0
attr replication #0
attr resultdir results
attr runnumber 1
attr seedset 1
attr sensitivity -94dBm

vector 7  Forest.networkOne[0].batteryStats  capacity  ETV
attr unit  mW-s
vector 8  Forest.networkOne[0].batteryStats  capacity(relative)  ETV
vector 9  Forest.networkOne[0].batteryStats  estimate  ETV
attr unit  mW-s
vector 10  Forest.networkOne[0].batteryStats  estimate(relative)  ETV
vector 19  Forest.networkOne[1].batteryStats  capacity  ETV
attr unit  mW-s
vector 20  Forest.networkOne[1].batteryStats  capacity(relative)  ETV
vector 21  Forest.networkOne[1].batteryStats  estimate  ETV
attr unit  mW-s
vector 22  Forest.networkOne[1].batteryStats  estimate(relative)  ETV
vector 31  Forest.networkTwo[0].batteryStats  capacity  ETV
attr unit  mW-s
vector 32  Forest.networkTwo[0].batteryStats  capacity(relative)  ETV
vector 33  Forest.networkTwo[0].batteryStats  estimate  ETV
attr unit  mW-s
vector 34  Forest.networkTwo[0].batteryStats  estimate(relative)  ETV
vector 43  Forest.networkTwo[1].batteryStats  capacity  ETV
attr unit  mW-s
vector 44  Forest.networkTwo[1].batteryStats  capacity(relative)  ETV
vector 45  Forest.networkTwo[1].batteryStats  estimate  ETV
attr unit  mW-s
vector 46  Forest.networkTwo[1].batteryStats  estimate(relative)  ETV
vector 71  Forest.networkTwo[0].applSensor  rawLatencies  ETV
attr unit  s
vector 55  Forest.networkOne[0].applSensor  rawLatencies  ETV
attr unit  s
vector 62  Forest.networkOne[1].netwl  nextHopSelectionForSink  ETV
vector 78  Forest.networkTwo[1].netwl  nextHopSelectionForSink  ETV
7	0	0	10800000
7	2303	60	10796615.950435
7	5065	120	10793231.896435
7	7929	180	10789847.842435
7	10217	240	10786463.788435
7	12817	300	10783079.734435
7	15657	360	10779695.680435
7	18449	420	10776311.626435
7	20907	480	10772927.572435
7	23505	540	10769543.518435
7	26129	600	10766159.464435
7	28681	660	10762775.410435
7	31161	720	10759391.356435
7	34097	780	10756007.302435
7	36721	840	10752623.248435
7	39513	900	10749239.194435
7	41873	960	10745855.140435
7	45001	1020	10742471.086435
7	48033	1080	10739087.032435
7	50585	1140	10735702.978435
7	53497	1200	10732318.924435
7	55779	1260	10728934.87487
7	58853	1320	10725550.82087
7	61717	1380	10722166.76687
7	64415	1440	10718782.71287
7	67253	1500	10715398.65887
7	70477	1560	10712014.60487
7	72983	1620	10708630.55087
7	75797	1680	10705246.49687
7	78319	1740	10701862.44287
7	80985	1800	10698478.38887
7	83513	1860	10695094.33487
7	86233	1920	10691710.28087
7	88761	1980	10688326.22687
7	91433	2040	10684942.17287
7	94273	2100	10681558.11887
7	97281	2160	10678174.06487
7	100457	2220	10674790.01087
7	103105	2280	10671405.95687
7	105633	2340	10668021.90287
7	108209	2400	10664637.84887
7	110827	2460	10661253.799306
7	113530	2520	10657869.745306
7	116291	2580	10654485.691306
7	119491	2640	10651101.637306
7	122805	2700	10647717.583306
7	125333	2760	10644333.529306
7	127911	2820	10640949.475306
7	130605	2880	10637565.421306
7	133063	2940	10634181.367306
7	136117	3000	10630797.313306
7	138885	3060	10627413.259306
7	141317	3120	10624029.205306
7	143749	3180	10620645.151306
7	145845	3240	10617261.097306
7	148757	3300	10613877.043306
7	151429	3360	10610492.989306
7	153999	3420	10607108.935306
7	156815	3480	10603724.881306
7	159553	3540	10600340.827306
7	162033	3600	10596956.773306
7	164795	3660	10593572.723741
7	167275	3720	10590188.669741
7	169901	3780	10586804.615741
7	172355	3840	10583420.561741
7	174643	3900	10580036.507741
7	177099	3960	10576652.453741
7	180061	4020	10573268.399741
7	182923	4080	10569884.345741
7	185547	4140	10566500.291741
7	188195	4200	10563116.237741
7	190771	4260	10559732.183741
7	193203	4320	10556348.129741
7	195971	4380	10552964.075741
7	198691	4440	10549580.021741
7	201365	4500	10546195.967741
7	204661	4560	10542811.913741
7	207405	4620	10539427.859741
7	209805	4680	10536043.805741
7	212645	4740	10532659.751741
7	215245	4800	10529275.697741
7	217575	4860	10525891.648176
7	220559	4920	10522507.594176
7	222705	4980	10519123.540176
8	0	0	1
8	2303	60	0.99968666207733
8	5065	120	0.999373323744
8	7929	180	0.99905998541067
8	10217	240	0.99874664707733
8	12817	300	0.998433308744
8	15657	360	0.99811997041067
8	18449	420	0.99780663207733
8	20907	480	0.997493293744
8	23505	540	0.99717995541067
8	26129	600	0.99686661707733
8	28681	660	0.996553278744
8	31161	720	0.99623994041067
8	34097	780	0.99592660207733
8	36721	840	0.995613263744
8	39513	900	0.99529992541067
8	41873	960	0.99498658707733
8	45001	1020	0.994673248744
8	48033	1080	0.99435991041067
8	50585	1140	0.99404657207733
8	53497	1200	0.993733233744
8	55779	1260	0.99341989582133
8	58853	1320	0.993106557488
8	61717	1380	0.99279321915467
8	64415	1440	0.99247988082133
8	67253	1500	0.992166542488
8	70477	1560	0.99185320415467
8	72983	1620	0.99153986582133
8	75797	1680	0.991226527488
8	78319	1740	0.99091318915467
8	80985	1800	0.99059985082133
8	83513	1860	0.990286512488
8	86233	1920	0.98997317415467
8	88761	1980	0.98965983582133
8	91433	2040	0.989346497488
8	94273	2100	0.98903315915467
8	97281	2160	0.98871982082133
8	100457	2220	0.988406482488
8	103105	2280	0.98809314415467
8	105633	2340	0.98777980582133
8	108209	2400	0.987466467488
8	110827	2460	0.98715312956533
8	113530	2520	0.986839791232
8	116291	2580	0.98652645289867
8	119491	2640	0.98621311456533
8	122805	2700	0.985899776232
8	125333	2760	0.98558643789867
8	127911	2820	0.98527309956533
8	130605	2880	0.984959761232
8	133063	2940	0.98464642289867
8	136117	3000	0.98433308456533
8	138885	3060	0.984019746232
8	141317	3120	0.98370640789867
8	143749	3180	0.98339306956534
8	145845	3240	0.983079731232
8	148757	3300	0.98276639289867
8	151429	3360	0.98245305456534
8	153999	3420	0.982139716232
8	156815	3480	0.98182637789867
8	159553	3540	0.98151303956534
8	162033	3600	0.981199701232
8	164795	3660	0.98088636330933
8	167275	3720	0.980573024976
8	169901	3780	0.98025968664267
8	172355	3840	0.97994634830934
8	174643	3900	0.979633009976
8	177099	3960	0.97931967164267
8	180061	4020	0.97900633330934
8	182923	4080	0.978692994976
8	185547	4140	0.97837965664267
8	188195	4200	0.97806631830934
8	190771	4260	0.977752979976
8	193203	4320	0.97743964164267
8	195971	4380	0.97712630330934
8	198691	4440	0.976812964976
8	201365	4500	0.97649962664267
8	204661	4560	0.97618628830934
8	207405	4620	0.975872949976
8	209805	4680	0.97555961164267
8	212645	4740	0.97524627330934
8	215245	4800	0.974932934976
8	217575	4860	0.97461959705334
8	220559	4920	0.97430625872
8	222705	4980	0.97399292038667
9	0	0	10800000
9	2303	60	10796615.950435
9	5065	120	10793231.896435
9	7929	180	10789847.842435
9	10217	240	10786463.788435
9	12817	300	10783079.734435
9	15657	360	10779695.680435
9	18449	420	10776311.626435
9	20907	480	10772927.572435
9	23505	540	10769543.518435
9	26129	600	10766159.464435
9	28681	660	10762775.410435
9	31161	720	10759391.356435
9	34097	780	10756007.302435
9	36721	840	10752623.248435
9	39513	900	10749239.194435
9	41873	960	10745855.140435
9	45001	1020	10742471.086435
9	48033	1080	10739087.032435
9	50585	1140	10735702.978435
9	53497	1200	10732318.924435
9	55779	1260	10728934.87487
9	58853	1320	10725550.82087
9	61717	1380	10722166.76687
9	64415	1440	10718782.71287
9	67253	1500	10715398.65887
9	70477	1560	10712014.60487
9	72983	1620	10708630.55087
9	75797	1680	10705246.49687
9	78319	1740	10701862.44287
9	80985	1800	10698478.38887
9	83513	1860	10695094.33487
9	86233	1920	10691710.28087
9	88761	1980	10688326.22687
9	91433	2040	10684942.17287
9	94273	2100	10681558.11887
9	97281	2160	10678174.06487
9	100457	2220	10674790.01087
9	103105	2280	10671405.95687
9	105633	2340	10668021.90287
9	108209	2400	10664637.84887
9	110827	2460	10661253.799306
9	113530	2520	10657869.745306
9	116291	2580	10654485.691306
9	119491	2640	10651101.637306
9	122805	2700	10647717.583306
9	125333	2760	10644333.529306
9	127911	2820	10640949.475306
9	130605	2880	10637565.421306
9	133063	2940	10634181.367306
9	136117	3000	10630797.313306
9	138885	3060	10627413.259306
9	141317	3120	10624029.205306
9	143749	3180	10620645.151306
9	145845	3240	10617261.097306
9	148757	3300	10613877.043306
9	151429	3360	10610492.989306
9	153999	3420	10607108.935306
9	156815	3480	10603724.881306
9	159553	3540	10600340.827306
9	162033	3600	10596956.773306
9	164795	3660	10593572.723741
9	167275	3720	10590188.669741
9	169901	3780	10586804.615741
9	172355	3840	10583420.561741
9	174643	3900	10580036.507741
9	177099	3960	10576652.453741
9	180061	4020	10573268.399741
9	182923	4080	10569884.345741
9	185547	4140	10566500.291741
9	188195	4200	10563116.237741
9	190771	4260	10559732.183741
9	193203	4320	10556348.129741
9	195971	4380	10552964.075741
9	198691	4440	10549580.021741
9	201365	4500	10546195.967741
9	204661	4560	10542811.913741
9	207405	4620	10539427.859741
9	209805	4680	10536043.805741
9	212645	4740	10532659.751741
9	215245	4800	10529275.697741
9	217575	4860	10525891.648176
9	220559	4920	10522507.594176
9	222705	4980	10519123.540176
10	0	0	1
10	2303	60	0.99968666207733
10	5065	120	0.999373323744
10	7929	180	0.99905998541067
10	10217	240	0.99874664707733
10	12817	300	0.998433308744
10	15657	360	0.99811997041067
10	18449	420	0.99780663207733
10	20907	480	0.997493293744
10	23505	540	0.99717995541067
10	26129	600	0.99686661707733
10	28681	660	0.996553278744
10	31161	720	0.99623994041067
10	34097	780	0.99592660207733
10	36721	840	0.995613263744
10	39513	900	0.99529992541067
10	41873	960	0.99498658707733
10	45001	1020	0.994673248744
10	48033	1080	0.99435991041067
10	50585	1140	0.99404657207733
10	53497	1200	0.993733233744
10	55779	1260	0.99341989582133
10	58853	1320	0.993106557488
10	61717	1380	0.99279321915467
10	64415	1440	0.99247988082133
10	67253	1500	0.992166542488
10	70477	1560	0.99185320415467
10	72983	1620	0.99153986582133
10	75797	1680	0.991226527488
10	78319	1740	0.99091318915467
10	80985	1800	0.99059985082133
10	83513	1860	0.990286512488
10	86233	1920	0.98997317415467
10	88761	1980	0.98965983582133
10	91433	2040	0.989346497488
10	94273	2100	0.98903315915467
10	97281	2160	0.98871982082133
10	100457	2220	0.988406482488
10	103105	2280	0.98809314415467
10	105633	2340	0.98777980582133
10	108209	2400	0.987466467488
10	110827	2460	0.98715312956533
10	113530	2520	0.986839791232
10	116291	2580	0.98652645289867
10	119491	2640	0.98621311456533
10	122805	2700	0.985899776232
10	125333	2760	0.98558643789867
10	127911	2820	0.98527309956533
10	130605	2880	0.984959761232
10	133063	2940	0.98464642289867
10	136117	3000	0.98433308456533
10	138885	3060	0.984019746232
10	141317	3120	0.98370640789867
10	143749	3180	0.98339306956534
10	145845	3240	0.983079731232
10	148757	3300	0.98276639289867
10	151429	3360	0.98245305456534
10	153999	3420	0.982139716232
10	156815	3480	0.98182637789867
10	159553	3540	0.98151303956534
10	162033	3600	0.981199701232
10	164795	3660	0.98088636330933
10	167275	3720	0.980573024976
10	169901	3780	0.98025968664267
10	172355	3840	0.97994634830934
10	174643	3900	0.979633009976
10	177099	3960	0.97931967164267
10	180061	4020	0.97900633330934
10	182923	4080	0.978692994976
10	185547	4140	0.97837965664267
10	188195	4200	0.97806631830934
10	190771	4260	0.977752979976
10	193203	4320	0.97743964164267
10	195971	4380	0.97712630330934
10	198691	4440	0.976812964976
10	201365	4500	0.97649962664267
10	204661	4560	0.97618628830934
10	207405	4620	0.975872949976
10	209805	4680	0.97555961164267
10	212645	4740	0.97524627330934
10	215245	4800	0.974932934976
10	217575	4860	0.97461959705334
10	220559	4920	0.97430625872
10	222705	4980	0.97399292038667
19	0	0	10800000
19	2304	60	10796609.716459
19	5066	120	10793218.410691
19	7930	180	10789826.850475
19	10218	240	10786436.689723
19	12818	300	10783045.765627
19	15658	360	10779654.332635
19	18450	420	10776262.645195
19	20908	480	10772872.735715
19	23506	540	10769481.305899
19	26130	600	10766091.145147
19	28682	660	10762699.457707
19	31162	720	10759308.533611
19	34098	780	10755917.863963
19	36722	840	10752528.212107
19	39514	900	10749136.779115
19	41874	960	10745746.109467
19	45002	1020	10742353.91313
19	48034	1080	10738962.734586
19	50586	1140	10735571.428818
19	53498	1200	10732179.741378
19	55780	1260	10728789.20339
19	58854	1320	10725397.770397
19	61718	1380	10722006.464629
19	64416	1440	10718615.794981
19	67254	1500	10715225.507005
19	70478	1560	10711832.928997
19	72984	1620	10708441.623229
19	75798	1680	10705049.681341
19	78320	1740	10701658.630021
19	80986	1800	10698267.578701
19	83514	1860	10694875.509589
19	86234	1920	10691484.076597
19	88762	1980	10688092.898053
19	91434	2040	10684701.465061
19	94274	2100	10681310.286517
19	97282	2160	10677918.599077
19	100458	2220	10674524.876053
19	103106	2280	10671134.079181
19	105634	2340	10667743.027861
19	108210	2400	10664352.358213
19	110828	2460	10660961.438552
19	113531	2520	10657569.110288
19	116292	2580	10654177.936448
19	119492	2640	10650785.612888
19	122806	2700	10647393.925448
19	125334	2760	10644002.365232
19	127912	2820	10640611.822808
19	130606	2880	10637221.15316
19	133064	2940	10633830.483511
19	136118	3000	10630438.414399
19	138886	3060	10627047.363079
19	141318	3120	10623657.202327
19	143750	3180	10620266.787127
19	145846	3240	10616877.771391
19	148758	3300	10613486.338399
19	151430	3360	10610094.905407
19	154000	3420	10606703.854087
19	156816	3480	10603312.421095
19	159554	3540	10599920.351983
19	162034	3600	10596530.191231
19	164796	3660	10593138.889898
19	167276	3720	10589749.365266
19	169902	3780	10586358.313946
19	172356	3840	10582968.407642
19	174644	3900	10579578.628562
19	177100	3960	10576188.340586
19	180062	4020	10572795.156291
19	182924	4080	10569403.311794
19	185548	4140	10566012.642146
19	188196	4200	10562621.209154
19	190772	4260	10559229.903386
19	193204	4320	10555839.360962
19	195972	4380	10552449.072986
19	198692	4440	10549057.131098
19	201366	4500	10545666.39688
19	204662	4560	10542273.486428
19	207406	4620	10538881.674978
19	209806	4680	10535490.635785
19	212646	4740	10532098.821121
19	215246	4800	10528708.787593
19	217576	4860	10525317.613485
19	220560	4920	10521925.417148
19	222706	4980	10518535.255683
20	0	0	1
20	2304	60	0.99968608485733
20	5066	120	0.99937207506399
20	7930	180	0.99905804171065
20	10218	240	0.99874413793732
20	12818	300	0.99843016348398
20	15658	360	0.99811614191064
20	18450	420	0.9978020967773
20	20908	480	0.99748821626988
20	23506	540	0.99717419499063
20	26130	600	0.99686029121729
20	28682	660	0.99654624608396
20	31162	720	0.99623227163062
20	34098	780	0.99591832073728
20	36722	840	0.99560446408395
20	39514	900	0.99529044251061
20	41874	960	0.99497649161727
20	45002	1020	0.99466239936393
20	48034	1080	0.9943484013506
20	50586	1140	0.99403439155726
20	53498	1200	0.99372034642392
20	55780	1260	0.99340640772125
20	58854	1320	0.99309238614791
20	61718	1380	0.99277837635458
20	64416	1440	0.99246442546124
20	67254	1500	0.9921505099079
20	70478	1560	0.99183638231456
20	72984	1620	0.99152237252123
20	75798	1680	0.99120830382789
20	78320	1740	0.99089431759455
20	80986	1800	0.99058033136121
20	83514	1860	0.99026625088788
20	86234	1920	0.98995222931454
20	88762	1980	0.9896382313012
20	91434	2040	0.98932420972787
20	94274	2100	0.98901021171453
20	97282	2160	0.98869616658119
20	100458	2220	0.98838193296785
20	103106	2280	0.98806797029451
20	105634	2340	0.98775398406118
20	108210	2400	0.98744003316784
20	110828	2460	0.98712605912517
20	113531	2520	0.98681195465628
20	116292	2580	0.9864979570785
20	119492	2640	0.98618385304516
20	122806	2700	0.98586980791182
20	125334	2760	0.98555577455848
20	127912	2820	0.98524183544515
20	130606	2880	0.98492788455181
20	133064	2940	0.98461393365847
20	136118	3000	0.98429985318513
20	138886	3060	0.9839858669518
20	141318	3120	0.98367196317846
20	143750	3180	0.98335803584512
20	145846	3240	0.98304423809179
20	148758	3300	0.98273021651845
20	151430	3360	0.98241619494511
20	154000	3420	0.98210220871177
20	156816	3480	0.98178818713844
20	159554	3540	0.9814741066651
20	162034	3600	0.98116020289176
20	164796	3660	0.98084619350909
20	167276	3720	0.98053234863575
20	169902	3780	0.98021836240242
20	172356	3840	0.97990448218908
20	174644	3900	0.97959061375574
20	177100	3960	0.97927669820241
20	180062	4020	0.97896251447142
20	182924	4080	0.97864845479573
20	185548	4140	0.9783345039024
20	188196	4200	0.97802048232906
20	190772	4260	0.97770647253572
20	193204	4320	0.97739253342238
20	195972	4380	0.97707861786904
20	198692	4440	0.97676454917571
20	201366	4500	0.9764505923037
20	204662	4560	0.97613643392855
20	207406	4620	0.97582237731282
20	209806	4680	0.97550839220236
20	212646	4740	0.97519433528902
20	215246	4800	0.97488044329568
20	217576	4860	0.97456644569301
20	220560	4920	0.97425235343967
20	222706	4980	0.97393844960024
21	0	0	10800000
21	2304	60	10796609.716459
21	5066	120	10793218.410691
21	7930	180	10789826.850475
21	10218	240	10786436.689723
21	12818	300	10783045.765627
21	15658	360	10779654.332635
21	18450	420	10776262.645195
21	20908	480	10772872.735715
21	23506	540	10769481.305899
21	26130	600	10766091.145147
21	28682	660	10762699.457707
21	31162	720	10759308.533611
21	34098	780	10755917.863963
21	36722	840	10752528.212107
21	39514	900	10749136.779115
21	41874	960	10745746.109467
21	45002	1020	10742353.91313
21	48034	1080	10738962.734586
21	50586	1140	10735571.428818
21	53498	1200	10732179.741378
21	55780	1260	10728789.20339
21	58854	1320	10725397.770397
21	61718	1380	10722006.464629
21	64416	1440	10718615.794981
21	67254	1500	10715225.507005
21	70478	1560	10711832.928997
21	72984	1620	10708441.623229
21	75798	1680	10705049.681341
21	78320	1740	10701658.630021
21	80986	1800	10698267.578701
21	83514	1860	10694875.509589
21	86234	1920	10691484.076597
21	88762	1980	10688092.898053
21	91434	2040	10684701.465061
21	94274	2100	10681310.286517
21	97282	2160	10677918.599077
21	100458	2220	10674524.876053
21	103106	2280	10671134.079181
21	105634	2340	10667743.027861
21	108210	2400	10664352.358213
21	110828	2460	10660961.438552
21	113531	2520	10657569.110288
21	116292	2580	10654177.936448
21	119492	2640	10650785.612888
21	122806	2700	10647393.925448
21	125334	2760	10644002.365232
21	127912	2820	10640611.822808
21	130606	2880	10637221.15316
21	133064	2940	10633830.483511
21	136118	3000	10630438.414399
21	138886	3060	10627047.363079
21	141318	3120	10623657.202327
21	143750	3180	10620266.787127
21	145846	3240	10616877.771391
21	148758	3300	10613486.338399
21	151430	3360	10610094.905407
21	154000	3420	10606703.854087
21	156816	3480	10603312.421095
21	159554	3540	10599920.351983
21	162034	3600	10596530.191231
21	164796	3660	10593138.889898
21	167276	3720	10589749.365266
21	169902	3780	10586358.313946
21	172356	3840	10582968.407642
21	174644	3900	10579578.628562
21	177100	3960	10576188.340586
21	180062	4020	10572795.156291
21	182924	4080	10569403.311794
21	185548	4140	10566012.642146
21	188196	4200	10562621.209154
21	190772	4260	10559229.903386
21	193204	4320	10555839.360962
21	195972	4380	10552449.072986
21	198692	4440	10549057.131098
21	201366	4500	10545666.39688
21	204662	4560	10542273.486428
21	207406	4620	10538881.674978
21	209806	4680	10535490.635785
21	212646	4740	10532098.821121
21	215246	4800	10528708.787593
21	217576	4860	10525317.613485
21	220560	4920	10521925.417148
21	222706	4980	10518535.255683
22	0	0	1
22	2304	60	0.99968608485733
22	5066	120	0.99937207506399
22	7930	180	0.99905804171065
22	10218	240	0.99874413793732
22	12818	300	0.99843016348398
22	15658	360	0.99811614191064
22	18450	420	0.9978020967773
22	20908	480	0.99748821626988
22	23506	540	0.99717419499063
22	26130	600	0.99686029121729
22	28682	660	0.99654624608396
22	31162	720	0.99623227163062
22	34098	780	0.99591832073728
22	36722	840	0.99560446408395
22	39514	900	0.99529044251061
22	41874	960	0.99497649161727
22	45002	1020	0.99466239936393
22	48034	1080	0.9943484013506
22	50586	1140	0.99403439155726
22	53498	1200	0.99372034642392
22	55780	1260	0.99340640772125
22	58854	1320	0.99309238614791
22	61718	1380	0.99277837635458
22	64416	1440	0.99246442546124
22	67254	1500	0.9921505099079
22	70478	1560	0.99183638231456
22	72984	1620	0.99152237252123
22	75798	1680	0.99120830382789
22	78320	1740	0.99089431759455
22	80986	1800	0.99058033136121
22	83514	1860	0.99026625088788
22	86234	1920	0.98995222931454
22	88762	1980	0.9896382313012
22	91434	2040	0.98932420972787
22	94274	2100	0.98901021171453
22	97282	2160	0.98869616658119
22	100458	2220	0.98838193296785
22	103106	2280	0.98806797029451
22	105634	2340	0.98775398406118
22	108210	2400	0.98744003316784
22	110828	2460	0.98712605912517
22	113531	2520	0.98681195465628
22	116292	2580	0.9864979570785
22	119492	2640	0.98618385304516
22	122806	2700	0.98586980791182
22	125334	2760	0.98555577455848
22	127912	2820	0.98524183544515
22	130606	2880	0.98492788455181
22	133064	2940	0.98461393365847
22	136118	3000	0.98429985318513
22	138886	3060	0.9839858669518
22	141318	3120	0.98367196317846
22	143750	3180	0.98335803584512
22	145846	3240	0.98304423809179
22	148758	3300	0.98273021651845
22	151430	3360	0.98241619494511
22	154000	3420	0.98210220871177
22	156816	3480	0.98178818713844
22	159554	3540	0.9814741066651
22	162034	3600	0.98116020289176
22	164796	3660	0.98084619350909
22	167276	3720	0.98053234863575
22	169902	3780	0.98021836240242
22	172356	3840	0.97990448218908
22	174644	3900	0.97959061375574
22	177100	3960	0.97927669820241
22	180062	4020	0.97896251447142
22	182924	4080	0.97864845479573
22	185548	4140	0.9783345039024
22	188196	4200	0.97802048232906
22	190772	4260	0.97770647253572
22	193204	4320	0.97739253342238
22	195972	4380	0.97707861786904
22	198692	4440	0.97676454917571
22	201366	4500	0.9764505923037
22	204662	4560	0.97613643392855
22	207406	4620	0.97582237731282
22	209806	4680	0.97550839220236
22	212646	4740	0.97519433528902
22	215246	4800	0.97488044329568
22	217576	4860	0.97456644569301
22	220560	4920	0.97425235343967
22	222706	4980	0.97393844960024
31	0	0	10800000
31	2305	60	10796615.950435
31	5067	120	10793231.896435
31	7931	180	10789847.842435
31	10219	240	10786463.788435
31	12819	300	10783079.734435
31	15659	360	10779695.680435
31	18451	420	10776311.626435
31	20909	480	10772927.572435
31	23507	540	10769543.518435
31	26131	600	10766159.464435
31	28683	660	10762775.410435
31	31163	720	10759391.356435
31	34099	780	10756007.302435
31	36723	840	10752623.248435
31	39515	900	10749239.194435
31	41875	960	10745855.140435
31	45003	1020	10742471.086435
31	48035	1080	10739087.032435
31	50587	1140	10735702.978435
31	53499	1200	10732318.924435
31	55781	1260	10728934.87487
31	58855	1320	10725550.82087
31	61719	1380	10722166.76687
31	64417	1440	10718782.71287
31	67255	1500	10715398.65887
31	70479	1560	10712014.60487
31	72985	1620	10708630.55087
31	75799	1680	10705246.49687
31	78321	1740	10701862.44287
31	80987	1800	10698478.38887
31	83515	1860	10695094.33487
31	86235	1920	10691710.28087
31	88763	1980	10688326.22687
31	91435	2040	10684942.17287
31	94275	2100	10681558.11887
31	97283	2160	10678174.06487
31	100459	2220	10674790.01087
31	103107	2280	10671405.95687
31	105635	2340	10668021.90287
31	108211	2400	10664637.84887
31	110829	2460	10661253.799306
31	113532	2520	10657869.745306
31	116293	2580	10654485.691306
31	119493	2640	10651101.637306
31	122807	2700	10647717.583306
31	125335	2760	10644333.529306
31	127913	2820	10640949.475306
31	130607	2880	10637565.421306
31	133065	2940	10634181.367306
31	136119	3000	10630797.313306
31	138887	3060	10627413.259306
31	141319	3120	10624029.205306
31	143751	3180	10620645.151306
31	145847	3240	10617261.097306
31	148759	3300	10613877.043306
31	151431	3360	10610492.989306
31	154001	3420	10607108.935306
31	156817	3480	10603724.881306
31	159555	3540	10600340.827306
31	162035	3600	10596956.773306
31	164797	3660	10593572.723741
31	167277	3720	10590188.669741
31	169903	3780	10586804.615741
31	172357	3840	10583420.561741
31	174645	3900	10580036.507741
31	177101	3960	10576652.453741
31	180063	4020	10573268.399741
31	182925	4080	10569884.345741
31	185549	4140	10566500.291741
31	188197	4200	10563116.237741
31	190773	4260	10559732.183741
31	193205	4320	10556348.129741
31	195973	4380	10552964.075741
31	198693	4440	10549580.021741
31	201367	4500	10546195.967741
31	204663	4560	10542811.913741
31	207407	4620	10539427.859741
31	209807	4680	10536043.805741
31	212647	4740	10532659.751741
31	215247	4800	10529275.697741
31	217577	4860	10525891.648176
31	220561	4920	10522507.594176
31	222707	4980	10519123.540176
32	0	0	1
32	2305	60	0.99968666207733
32	5067	120	0.999373323744
32	7931	180	0.99905998541067
32	10219	240	0.99874664707733
32	12819	300	0.998433308744
32	15659	360	0.99811997041067
32	18451	420	0.99780663207733
32	20909	480	0.997493293744
32	23507	540	0.99717995541067
32	26131	600	0.99686661707733
32	28683	660	0.996553278744
32	31163	720	0.99623994041067
32	34099	780	0.99592660207733
32	36723	840	0.995613263744
32	39515	900	0.99529992541067
32	41875	960	0.99498658707733
32	45003	1020	0.994673248744
32	48035	1080	0.99435991041067
32	50587	1140	0.99404657207733
32	53499	1200	0.993733233744
32	55781	1260	0.99341989582133
32	58855	1320	0.993106557488
32	61719	1380	0.99279321915467
32	64417	1440	0.99247988082133
32	67255	1500	0.992166542488
32	70479	1560	0.99185320415467
32	72985	1620	0.99153986582133
32	75799	1680	0.991226527488
32	78321	1740	0.99091318915467
32	80987	1800	0.99059985082133
32	83515	1860	0.990286512488
32	86235	1920	0.98997317415467
32	88763	1980	0.98965983582133
32	91435	2040	0.989346497488
32	94275	2100	0.98903315915467
32	97283	2160	0.98871982082133
32	100459	2220	0.988406482488
32	103107	2280	0.98809314415467
32	105635	2340	0.98777980582133
32	108211	2400	0.987466467488
32	110829	2460	0.98715312956533
32	113532	2520	0.986839791232
32	116293	2580	0.98652645289867
32	119493	2640	0.98621311456533
32	122807	2700	0.985899776232
32	125335	2760	0.98558643789867
32	127913	2820	0.98527309956533
32	130607	2880	0.984959761232
32	133065	2940	0.98464642289867
32	136119	3000	0.98433308456533
32	138887	3060	0.984019746232
32	141319	3120	0.98370640789867
32	143751	3180	0.98339306956534
32	145847	3240	0.983079731232
32	148759	3300	0.98276639289867
32	151431	3360	0.98245305456534
32	154001	3420	0.982139716232
32	156817	3480	0.98182637789867
32	159555	3540	0.98151303956534
32	162035	3600	0.981199701232
32	164797	3660	0.98088636330934
32	167277	3720	0.980573024976
32	169903	3780	0.98025968664267
32	172357	3840	0.97994634830934
32	174645	3900	0.979633009976
32	177101	3960	0.97931967164267
32	180063	4020	0.97900633330934
32	182925	4080	0.978692994976
32	185549	4140	0.97837965664267
32	188197	4200	0.97806631830934
32	190773	4260	0.977752979976
32	193205	4320	0.97743964164267
32	195973	4380	0.97712630330934
32	198693	4440	0.976812964976
32	201367	4500	0.97649962664267
32	204663	4560	0.97618628830934
32	207407	4620	0.975872949976
32	209807	4680	0.97555961164267
32	212647	4740	0.97524627330934
32	215247	4800	0.974932934976
32	217577	4860	0.97461959705334
32	220561	4920	0.97430625872
32	222707	4980	0.97399292038667
33	0	0	10800000
33	2305	60	10796615.950435
33	5067	120	10793231.896435
33	7931	180	10789847.842435
33	10219	240	10786463.788435
33	12819	300	10783079.734435
33	15659	360	10779695.680435
33	18451	420	10776311.626435
33	20909	480	10772927.572435
33	23507	540	10769543.518435
33	26131	600	10766159.464435
33	28683	660	10762775.410435
33	31163	720	10759391.356435
33	34099	780	10756007.302435
33	36723	840	10752623.248435
33	39515	900	10749239.194435
33	41875	960	10745855.140435
33	45003	1020	10742471.086435
33	48035	1080	10739087.032435
33	50587	1140	10735702.978435
33	53499	1200	10732318.924435
33	55781	1260	10728934.87487
33	58855	1320	10725550.82087
33	61719	1380	10722166.76687
33	64417	1440	10718782.71287
33	67255	1500	10715398.65887
33	70479	1560	10712014.60487
33	72985	1620	10708630.55087
33	75799	1680	10705246.49687
33	78321	1740	10701862.44287
33	80987	1800	10698478.38887
33	83515	1860	10695094.33487
33	86235	1920	10691710.28087
33	88763	1980	10688326.22687
33	91435	2040	10684942.17287
33	94275	2100	10681558.11887
33	97283	2160	10678174.06487
33	100459	2220	10674790.01087
33	103107	2280	10671405.95687
33	105635	2340	10668021.90287
33	108211	2400	10664637.84887
33	110829	2460	10661253.799306
33	113532	2520	10657869.745306
33	116293	2580	10654485.691306
33	119493	2640	10651101.637306
33	122807	2700	10647717.583306
33	125335	2760	10644333.529306
33	127913	2820	10640949.475306
33	130607	2880	10637565.421306
33	133065	2940	10634181.367306
33	136119	3000	10630797.313306
33	138887	3060	10627413.259306
33	141319	3120	10624029.205306
33	143751	3180	10620645.151306
33	145847	3240	10617261.097306
33	148759	3300	10613877.043306
33	151431	3360	10610492.989306
33	154001	3420	10607108.935306
33	156817	3480	10603724.881306
33	159555	3540	10600340.827306
33	162035	3600	10596956.773306
33	164797	3660	10593572.723741
33	167277	3720	10590188.669741
33	169903	3780	10586804.615741
33	172357	3840	10583420.561741
33	174645	3900	10580036.507741
33	177101	3960	10576652.453741
33	180063	4020	10573268.399741
33	182925	4080	10569884.345741
33	185549	4140	10566500.291741
33	188197	4200	10563116.237741
33	190773	4260	10559732.183741
33	193205	4320	10556348.129741
33	195973	4380	10552964.075741
33	198693	4440	10549580.021741
33	201367	4500	10546195.967741
33	204663	4560	10542811.913741
33	207407	4620	10539427.859741
33	209807	4680	10536043.805741
33	212647	4740	10532659.751741
33	215247	4800	10529275.697741
33	217577	4860	10525891.648176
33	220561	4920	10522507.594176
33	222707	4980	10519123.540176
34	0	0	1
34	2305	60	0.99968666207733
34	5067	120	0.999373323744
34	7931	180	0.99905998541067
34	10219	240	0.99874664707733
34	12819	300	0.998433308744
34	15659	360	0.99811997041067
34	18451	420	0.99780663207733
34	20909	480	0.997493293744
34	23507	540	0.99717995541067
34	26131	600	0.99686661707733