version 2
run P2P-0-20130702-15:39:45-10828
attr configname P2P
attr datetime 20130702-15:39:45
attr experiment P2P
attr inifile omnetpp.ini
attr iterationvars "$0=5000, $1=0, $plan=1, $sensitivity=-94dBm, $2=0"
attr iterationvars2 "$0=5000, $1=0, $plan=1, $sensitivity=-94dBm, $2=0, $repetition=0"
attr measurement "$0=5000, $1=0, $plan=1, $sensitivity=-94dBm, $2=0"
attr network Forest
attr plan 1
attr processid 10828
attr repetition 0
attr replication #0
attr resultdir results
attr runnumber 0
attr seedset 0
attr sensitivity -94dBm

vector 7  Forest.networkOne[0].batteryStats  capacity  ETV
attr unit  mW-s
vector 8  Forest.networkOne[0].batteryStats  capacity(relative)  ETV
vector 9  Forest.networkOne[0].batteryStats  estimate  ETV
attr unit  mW-s
vector 10  Forest.networkOne[0].batteryStats  estimate(relative)  ETV
vector 19  Forest.networkOne[1].batteryStats  capacity  ETV
attr unit  mW-s
vector 20  Forest.networkOne[1].batteryStats  capacity(relative)  ETV
vector 21  Forest.networkOne[1].batteryStats  estimate  ETV
attr unit  mW-s
vector 22  Forest.networkOne[1].batteryStats  estimate(relative)  ETV
vector 31  Forest.networkTwo[0].batteryStats  capacity  ETV
attr unit  mW-s
vector 32  Forest.networkTwo[0].batteryStats  capacity(relative)  ETV
vector 33  Forest.networkTwo[0].batteryStats  estimate  ETV
attr unit  mW-s
vector 34  Forest.networkTwo[0].batteryStats  estimate(relative)  ETV
vector 43  Forest.networkTwo[1].batteryStats  capacity  ETV
attr unit  mW-s
vector 44  Forest.networkTwo[1].batteryStats  capacity(relative)  ETV
vector 45  Forest.networkTwo[1].batteryStats  estimate  ETV
attr unit  mW-s
vector 46  Forest.networkTwo[1].batteryStats  estimate(relative)  ETV
vector 55  Forest.networkOne[0].applSensor  rawLatencies  ETV
attr unit  s
vector 71  Forest.networkTwo[0].applSensor  rawLatencies  ETV
attr unit  s
vector 78  Forest.networkTwo[1].netwl  nextHopSelectionForSink  ETV
vector 62  Forest.networkOne[1].netwl  nextHopSelectionForSink  ETV
7	0	0	10800000
7	2927	60	10796615.950435
7	5479	120	10793231.896435
7	8175	180	10789847.842435
7	10991	240	10786463.788435
7	13543	300	10783079.734435
7	16071	360	10779695.680435
7	18743	420	10776311.626435
7	21367	480	10772927.572435
7	23823	540	10769543.518435
7	26351	600	10766159.464435
7	28927	660	10762775.410435
7	31959	720	10759391.356435
7	34985	780	10756007.302435
7	37561	840	10752623.248435
7	40331	900	10749239.194435
7	42635	960	10745855.140435
7	45571	1020	10742471.086435
7	48507	1080	10739087.032435
7	51371	1140	10735702.978435
7	54069	1200	10732318.924435
7	57093	1260	10728934.87487
7	59693	1320	10725550.82087
7	62461	1380	10722166.76687
7	65679	1440	10718782.71287
7	68231	1500	10715398.65887
7	71145	1560	10712014.60487
7	73503	1620	10708630.55087
7	76343	1680	10705246.49687
7	79105	1740	10701862.44287
7	81633	1800	10698478.38887
7	83977	1860	10695094.33487
7	86521	1920	10691710.28087
7	89313	1980	10688326.22687
7	92489	2040	10684942.17287
7	95161	2100	10681558.11887
7	97545	2160	10678174.06487
7	100937	2220	10674790.01087
7	103249	2280	10671405.95687
7	105729	2340	10668021.90287
7	108403	2400	10664637.84887
7	111325	2460	10661253.799306
7	114069	2520	10657869.745306
7	116671	2580	10654485.691306
7	119269	2640	10651101.637306
7	121821	2700	10647717.583306
7	124759	2760	10644333.529306
7	127335	2820	10640949.475306
7	129861	2880	10637565.421306
7	132029	2940	10634181.367306
7	134773	3000	10630797.313306
7	137493	3060	10627413.259306
7	139757	3120	10624029.205306
7	142741	3180	10620645.151306
7	145029	3240	10617261.097306
7	147481	3300	10613877.043306
7	149913	3360	10610492.989306
7	152823	3420	10607108.935306
7	155639	3480	10603724.881306
7	158521	3540	10600340.827306
7	161289	3600	10596956.773306
7	164389	3660	10593572.723741
7	167277	3720	10590188.669741
7	169851	3780	10586804.615741
7	172757	3840	10583420.561741
7	175573	3900	10580036.507741
7	178269	3960	10576652.453741
7	180941	4020	10573268.399741
7	183685	4080	10569884.345741
7	186309	4140	10566500.291741
7	188933	4200	10563116.237741
7	191359	4260	10559732.183741
7	194127	4320	10556348.129741
7	196803	4380	10552964.075741
7	199519	4440	10549580.021741
7	202479	4500	10546195.967741
7	204503	4560	10542811.913741
7	207463	4620	10539427.859741
7	210785	4680	10536043.805741
7	213503	4740	10532659.751741
7	216055	4800	10529275.697741
7	218763	4860	10525891.648176
7	221315	4920	10522507.594176
7	224013	4980	10519123.540176
8	0	0	1
8	2927	60	0.99968666207733
8	5479	120	0.999373323744
8	8175	180	0.99905998541067
8	10991	240	0.99874664707733
8	13543	300	0.998433308744
8	16071	360	0.99811997041067
8	18743	420	0.99780663207733
8	21367	480	0.997493293744
8	23823	540	0.99717995541067
8	26351	600	0.99686661707733
8	28927	660	0.996553278744
8	31959	720	0.99623994041067
8	34985	780	0.99592660207733
8	37561	840	0.995613263744
8	40331	900	0.99529992541067
8	42635	960	0.99498658707733
8	45571	1020	0.994673248744
8	48507	1080	0.99435991041067
8	51371	1140	0.99404657207733
8	54069	1200	0.993733233744
8	57093	1260	0.99341989582133
8	59693	1320	0.993106557488
8	62461	1380	0.99279321915467
8	65679	1440	0.99247988082133
8	68231	1500	0.992166542488
8	71145	1560	0.99185320415467
8	73503	1620	0.99153986582133
8	76343	1680	0.991226527488
8	79105	1740	0.99091318915467
8	81633	1800	0.99059985082133
8	83977	1860	0.990286512488
8	86521	1920	0.98997317415467
8	89313	1980	0.98965983582133
8	92489	2040	0.989346497488
8	95161	2100	0.98903315915467
8	97545	2160	0.98871982082133
8	100937	2220	0.988406482488
8	103249	2280	0.98809314415467
8	105729	2340	0.98777980582133
8	108403	2400	0.987466467488
8	111325	2460	0.98715312956533
8	114069	2520	0.986839791232
8	116671	2580	0.98652645289867
8	119269	2640	0.98621311456533
8	121821	2700	0.985899776232
8	124759	2760	0.98558643789867
8	127335	2820	0.98527309956533
8	129861	2880	0.984959761232
8	132029	2940	0.98464642289867
8	134773	3000	0.98433308456533
8	137493	3060	0.984019746232
8	139757	3120	0.98370640789867
8	142741	3180	0.98339306956534
8	145029	3240	0.983079731232
8	147481	3300	0.98276639289867
8	149913	3360	0.98245305456534
8	152823	3420	0.982139716232
8	155639	3480	0.98182637789867
8	158521	3540	0.98151303956534
8	161289	3600	0.981199701232
8	164389	3660	0.98088636330933
8	167277	3720	0.980573024976
8	169851	3780	0.98025968664267
8	172757	3840	0.97994634830934
8	175573	3900	0.979633009976
8	178269	3960	0.97931967164267
8	180941	4020	0.97900633330934
8	183685	4080	0.978692994976
8	186309	4140	0.97837965664267
8	188933	4200	0.97806631830934
8	191359	4260	0.977752979976
8	194127	4320	0.97743964164267
8	196803	4380	0.97712630330934
8	199519	4440	0.976812964976
8	202479	4500	0.97649962664267
8	204503	4560	0.97618628830934
8	207463	4620	0.975872949976
8	210785	4680	0.97555961164267
8	213503	4740	0.97524627330934
8	216055	4800	0.974932934976
8	218763	4860	0.97461959705334
8	221315	4920	0.97430625872
8	224013	4980	0.97399292038667
9	0	0	10800000
9	2927	60	10796615.950435
9	5479	120	10793231.896435
9	8175	180	10789847.842435
9	10991	240	10786463.788435
9	13543	300	10783079.734435
9	16071	360	10779695.680435
9	18743	420	10776311.626435
9	21367	480	10772927.572435
9	23823	540	10769543.518435
9	26351	600	10766159.464435
9	28927	660	10762775.410435
9	31959	720	10759391.356435
9	34985	780	10756007.302435
9	37561	840	10752623.248435
9	40331	900	10749239.194435
9	42635	960	10745855.140435
9	45571	1020	10742471.086435
9	48507	1080	10739087.032435
9	51371	1140	10735702.978435
9	54069	1200	10732318.924435
9	57093	1260	10728934.87487
9	59693	1320	10725550.82087
9	62461	1380	10722166.76687
9	65679	1440	10718782.71287
9	68231	1500	10715398.65887
9	71145	1560	10712014.60487
9	73503	1620	10708630.55087
9	76343	1680	10705246.49687
9	79105	1740	10701862.44287
9	81633	1800	10698478.38887
9	83977	1860	10695094.33487
9	86521	1920	10691710.28087
9	89313	1980	10688326.22687
9	92489	2040	10684942.17287
9	95161	2100	10681558.11887
9	97545	2160	10678174.06487
9	100937	2220	10674790.01087
9	103249	2280	10671405.95687
9	105729	2340	10668021.90287
9	108403	2400	10664637.84887
9	111325	2460	10661253.799306
9	114069	2520	10657869.745306
9	116671	2580	10654485.691306
9	119269	2640	10651101.637306
9	121821	2700	10647717.583306
9	124759	2760	10644333.529306
9	127335	2820	10640949.475306
9	129861	2880	10637565.421306
9	132029	2940	10634181.367306
9	134773	3000	10630797.313306
9	137493	3060	10627413.259306
9	139757	3120	10624029.205306
9	142741	3180	10620645.151306
9	145029	3240	10617261.097306
9	147481	3300	10613877.043306
9	149913	3360	10610492.989306
9	152823	3420	10607108.935306
9	155639	3480	10603724.881306
9	158521	3540	10600340.827306
9	161289	3600	10596956.773306
9	164389	3660	10593572.723741
9	167277	3720	10590188.669741
9	169851	3780	10586804.615741
9	172757	3840	10583420.561741
9	175573	3900	10580036.507741
9	178269	3960	10576652.453741
9	180941	4020	10573268.399741
9	183685	4080	10569884.345741
9	186309	4140	10566500.291741
9	188933	4200	10563116.237741
9	191359	4260	10559732.183741
9	194127	4320	10556348.129741
9	196803	4380	10552964.075741
9	199519	4440	10549580.021741
9	202479	4500	10546195.967741
9	204503	4560	10542811.913741
9	207463	4620	10539427.859741
9	210785	4680	10536043.805741
9	213503	4740	10532659.751741
9	216055	4800	10529275.697741
9	218763	4860	10525891.648176
9	221315	4920	10522507.594176
9	224013	4980	10519123.540176
10	0	0	1
10	2927	60	0.99968666207733
10	5479	120	0.999373323744
10	8175	180	0.99905998541067
10	10991	240	0.99874664707733
10	13543	300	0.998433308744
10	16071	360	0.99811997041067
10	18743	420	0.99780663207733
10	21367	480	0.997493293744
10	23823	540	0.99717995541067
10	26351	600	0.99686661707733
10	28927	660	0.996553278744
10	31959	720	0.99623994041067
10	34985	780	0.99592660207733
10	37561	840	0.995613263744
10	40331	900	0.99529992541067
10	42635	960	0.99498658707733
10	45571	1020	0.994673248744
10	48507	1080	0.99435991041067
10	51371	1140	0.99404657207733
10	54069	1200	0.993733233744
10	57093	1260	0.99341989582133
10	59693	1320	0.993106557488
10	62461	1380	0.99279321915467
10	65679	1440	0.99247988082133
10	68231	1500	0.992166542488
10	71145	1560	0.99185320415467
10	73503	1620	0.99153986582133
10	76343	1680	0.991226527488
10	79105	1740	0.99091318915467
10	81633	1800	0.99059985082133
10	83977	1860	0.990286512488
10	86521	1920	0.98997317415467
10	89313	1980	0.98965983582133
10	92489	2040	0.989346497488
10	95161	2100	0.98903315915467
10	97545	2160	0.98871982082133
10	100937	2220	0.988406482488
10	103249	2280	0.98809314415467
10	105729	2340	0.98777980582133
10	108403	2400	0.987466467488
10	111325	2460	0.98715312956533
10	114069	2520	0.986839791232
10	116671	2580	0.98652645289867
10	119269	2640	0.98621311456533
10	121821	2700	0.985899776232
10	124759	2760	0.98558643789867
10	127335	2820	0.98527309956533
10	129861	2880	0.984959761232
10	132029	2940	0.98464642289867
10	134773	3000	0.98433308456533
10	137493	3060	0.984019746232
10	139757	3120	0.98370640789867
10	142741	3180	0.98339306956534
10	145029	3240	0.983079731232
10	147481	3300	0.98276639289867
10	149913	3360	0.98245305456534
10	152823	3420	0.982139716232
10	155639	3480	0.98182637789867
10	158521	3540	0.98151303956534
10	161289	3600	0.981199701232
10	164389	3660	0.98088636330933
10	167277	3720	0.980573024976
10	169851	3780	0.98025968664267
10	172757	3840	0.97994634830934
10	175573	3900	0.979633009976
10	178269	3960	0.97931967164267
10	180941	4020	0.97900633330934
10	183685	4080	0.978692994976
10	186309	4140	0.97837965664267
10	188933	4200	0.97806631830934
10	191359	4260	0.977752979976
10	194127	4320	0.97743964164267
10	196803	4380	0.97712630330934
10	199519	4440	0.976812964976
10	202479	4500	0.97649962664267
10	204503	4560	0.97618628830934
10	207463	4620	0.975872949976
10	210785	4680	0.97555961164267
10	213503	4740	0.97524627330934
10	216055	4800	0.974932934976
10	218763	4860	0.97461959705334
10	221315	4920	0.97430625872
10	224013	4980	0.97399292038667
19	0	0	10800000
19	2928	60	10796607.935323
19	5480	120	10793216.502331
19	8176	180	10789826.214355
19	10992	240	10786435.544707
19	13544	300	10783043.984491
19	16072	360	10779653.187619
19	18744	420	10776262.390747
19	21368	480	10772869.939963
19	23824	540	10769479.524763
19	26352	600	10766088.600667
19	28928	660	10762697.294899
19	31960	720	10759305.607459
19	34986	780	10755913.156675
19	37562	840	10752521.850907
19	40332	900	10749130.824246
19	42636	960	10745740.893283
19	45572	1020	10742348.442498
19	48508	1080	10738958.917866
19	51372	1140	10735567.103202
19	54070	1200	10732176.739209
19	57094	1260	10728784.368877
19	59694	1320	10725393.699229
19	62462	1380	10722002.775133
19	65680	1440	10718610.324349
19	68232	1500	10715218.128013
19	71146	1560	10711826.18118
19	73504	1620	10708435.770925
19	76344	1680	10705043.829037
19	79106	1740	10701651.759925
19	81634	1800	10698260.835829
19	83978	1860	10694871.306493
19	86522	1920	10691481.150445
19	89314	1980	10688089.590229
19	92490	2040	10684697.648341
19	95162	2100	10681306.342573
19	97546	2160	10677916.690717
19	100938	2220	10674524.748829
19	103250	2280	10671134.079181
19	105730	2340	10667743.918429
19	108404	2400	10664352.508069
19	111326	2460	10660960.42076
19	114070	2520	10657569.242216
19	116672	2580	10654178.95424
19	119270	2640	10650786.63068
19	121822	2700	10647395.197688
19	124760	2760	10644003.2558
19	127336	2820	10640613.731168
19	129862	2880	10637222.043727
19	132030	2940	10633832.519095
19	134774	3000	10630441.722223
19	137494	3060	10627049.653111
19	139758	3120	10623659.237911
19	142742	3180	10620267.932143
19	145030	3240	10616877.262495
19	147482	3300	10613486.431893
19	149914	3360	10610096.559319
19	152824	3420	10606705.380775
19	155640	3480	10603313.820559
19	158522	3540	10599924.041479
19	161290	3600	10596532.862935
19	164390	3660	10593141.325108
19	167278	3720	10589749.183054
19	169852	3780	10586358.44117
19	172758	3840	10582967.135402
19	175574	3900	10579575.829634
19	178270	3960	10576185.414434
19	180942	4020	10572794.363114
19	183686	4080	10569403.18457
19	186310	4140	10566011.878802
19	188934	4200	10562621.463602
19	191360	4260	10559231.557298
19	194128	4320	10555838.724842
19	196804	4380	10552447.219488
19	199520	4440	10549056.113306
19	202480	4500	10545665.061986
19	204504	4560	10542274.77401
19	207464	4620	10538882.959345
19	210786	4680	10535490.381337
19	213504	4740	10532099.711689
19	216056	4800	10528708.914817
19	218764	4860	10525317.740709
19	221316	4920	10521927.452732
19	224014	4980	10518535.491451
20	0	0	1
20	2928	60	0.99968591993733
20	5480	120	0.99937189836399
20	8176	180	0.99905798281065
20	10992	240	0.99874403191732
20	13544	300	0.99842999856398
20	16072	360	0.99811603589064
20	18744	420	0.9978020732173
20	21368	480	0.99748795740397
20	23824	540	0.99717403007063
20	26352	600	0.99686005561729
20	28928	660	0.99654604582396
20	31960	720	0.99623200069062
20	34986	780	0.99591788487728
20	37562	840	0.99560387508394
20	40332	900	0.99528989113393
20	42636	960	0.99497600863727
20	45572	1020	0.99466189282393
20	48508	1080	0.99434804795059
20	51372	1140	0.99403399103726
20	54070	1200	0.99372006844529
20	57094	1260	0.99340596008125
20	59694	1320	0.99309200918791
20	62462	1380	0.99277803473457
20	65680	1440	0.99246391892123
20	68232	1500	0.99214982666789
20	71146	1560	0.99183575751668
20	73504	1620	0.99152183064122
20	76344	1680	0.99120776194788
20	79106	1740	0.99089368147455
20	81634	1800	0.99057970702121
20	83978	1860	0.99026586171232
20	86522	1920	0.98995195837453
20	89314	1980	0.9896379250212
20	92490	2040	0.98932385632786
20	95162	2100	0.98900984653452
20	97546	2160	0.98869598988119
20	100938	2220	0.98838192118785
20	103250	2280	0.98806797029451
20	105730	2340	0.98775406652117
20	108404	2400	0.98744004704346
20	111326	2460	0.98712596488517
20	114070	2520	0.98681196687183
20	116672	2580	0.98649805131849
20	119270	2640	0.98618394728516
20	121822	2700	0.98586992571182
20	124760	2760	0.98555585701848
20	127336	2820	0.98524201214514
20	129862	2880	0.98492796701181
20	132030	2940	0.98461412213847
20	134774	3000	0.98430015946513
20	137494	3060	0.98398607899179
20	139758	3120	0.98367215165846
20	142742	3180	0.98335814186512
20	145030	3240	0.98304419097178
20	147482	3300	0.98273022517527
20	149914	3360	0.98241634808511
20	152824	3420	0.98210235007177
20	155640	3480	0.98178831671843
20	158522	3540	0.9814744482851
20	161290	3600	0.98116045027176
20	164390	3660	0.98084641899147
20	167278	3720	0.98053233176428
20	169852	3780	0.98021837418241
20	172758	3840	0.97990436438908
20	175574	3900	0.97959035459574
20	178270	3960	0.9792764272624
20	180942	4020	0.97896244102907
20	183686	4080	0.97864844301573
20	186310	4140	0.97833443322239
20	188934	4200	0.97802050588905
20	191360	4260	0.97770662567572
20	194128	4320	0.97739247452238
20	196804	4380	0.9770784462489
20	199520	4440	0.9767644549357
20	202480	4500	0.97645046870237
20	204504	4560	0.97613655314903
20	207464	4620	0.97582249623569
20	210786	4680	0.97550836864236
20	213504	4740	0.97519441774902
20	216056	4800	0.97488045507568
20	218764	4860	0.97456645747301
20	221316	4920	0.97425254191968
20	224014	4980	0.97393847143063
21	0	0	10800000
21	2928	60	10796607.935323
21	5480	120	10793216.502331
21	8176	180	10789826.214355
21	10992	240	10786435.544707
21	13544	300	10783043.984491
21	16072	360	10779653.187619
21	18744	420	10776262.390747
21	21368	480	10772869.939963
21	23824	540	10769479.524763
21	26352	600	10766088.600667
21	28928	660	10762697.294899
21	31960	720	10759305.607459
21	34986	780	10755913.156675
21	37562	840	10752521.850907
21	40332	900	10749130.824246
21	42636	960	10745740.893283
21	45572	1020	10742348.442498
21	48508	1080	10738958.917866
21	51372	1140	10735567.103202
21	54070	1200	10732176.739209
21	57094	1260	10728784.368877
21	59694	1320	10725393.699229
21	62462	1380	10722002.775133
21	65680	1440	10718610.324349
21	68232	1500	10715218.128013
21	71146	1560	10711826.18118
21	73504	1620	10708435.770925
21	76344	1680	10705043.829037
21	79106	1740	10701651.759925
21	81634	1800	10698260.835829
21	83978	1860	10694871.306493
21	86522	1920	10691481.150445
21	89314	1980	10688089.590229
21	92490	2040	10684697.648341
21	95162	2100	10681306.342573
21	97546	2160	10677916.690717
21	100938	2220	10674524.748829
21	103250	2280	10671134.079181
21	105730	2340	10667743.918429
21	108404	2400	10664352.508069
21	111326	2460	10660960.42076
21	114070	2520	10657569.242216
21	116672	2580	10654178.95424
21	119270	2640	10650786.63068
21	121822	2700	10647395.197688
21	124760	2760	10644003.2558
21	127336	2820	10640613.731168
21	129862	2880	10637222.043727
21	132030	2940	10633832.519095
21	134774	3000	10630441.722223
21	137494	3060	10627049.653111
21	139758	3120	10623659.237911
21	142742	3180	10620267.932143
21	145030	3240	10616877.262495
21	147482	3300	10613486.431893
21	149914	3360	10610096.559319
21	152824	3420	10606705.380775
21	155640	3480	10603313.820559
21	158522	3540	10599924.041479
21	161290	3600	10596532.862935
21	164390	3660	10593141.325108
21	167278	3720	10589749.183054
21	169852	3780	10586358.44117
21	172758	3840	10582967.135402
21	175574	3900	10579575.829634
21	178270	3960	10576185.414434
21	180942	4020	10572794.363114
21	183686	4080	10569403.18457
21	186310	4140	10566011.878802
21	188934	4200	10562621.463602
21	191360	4260	10559231.557298
21	194128	4320	10555838.724842
21	196804	4380	10552447.219488
21	199520	4440	10549056.113306
21	202480	4500	10545665.061986
21	204504	4560	10542274.77401
21	207464	4620	10538882.959345
21	210786	4680	10535490.381337
21	213504	4740	10532099.711689
21	216056	4800	10528708.914817
21	218764	4860	10525317.740709
21	221316	4920	10521927.452732
21	224014	4980	10518535.491451
22	0	0	1
22	2928	60	0.99968591993733
22	5480	120	0.99937189836399
22	8176	180	0.99905798281065
22	10992	240	0.99874403191732
22	13544	300	0.99842999856398
22	16072	360	0.99811603589064
22	18744	420	0.9978020732173
22	21368	480	0.99748795740397
22	23824	540	0.99717403007063
22	26352	600	0.99686005561729
22	28928	660	0.99654604582396
22	31960	720	0.99623200069062
22	34986	780	0.99591788487728
22	37562	840	0.99560387508394
22	40332	900	0.99528989113393
22	42636	960	0.99497600863727
22	45572	1020	0.99466189282393
22	48508	1080	0.99434804795059
22	51372	1140	0.99403399103726
22	54070	1200	0.99372006844529
22	57094	1260	0.99340596008125
22	59694	1320	0.99309200918791
22	62462	1380	0.99277803473457
22	65680	1440	0.99246391892123
22	68232	1500	0.99214982666789
22	71146	1560	0.99183575751668
22	73504	1620	0.99152183064122
22	76344	1680	0.99120776194788
22	79106	1740	0.99089368147455
22	81634	1800	0.99057970702121
22	83978	1860	0.99026586171232
22	86522	1920	0.98995195837453
22	89314	1980	0.9896379250212
22	92490	2040	0.98932385632786
22	95162	2100	0.98900984653452
22	97546	2160	0.98869598988119
22	100938	2220	0.98838192118785
22	103250	2280	0.98806797029451
22	105730	2340	0.98775406652117
22	108404	2400	0.98744004704346
22	111326	2460	0.98712596488517
22	114070	2520	0.98681196687183
22	116672	2580	0.98649805131849
22	119270	2640	0.98618394728516
22	121822	2700	0.98586992571182
22	124760	2760	0.98555585701848
22	127336	2820	0.98524201214514
22	129862	2880	0.98492796701181
22	132030	2940	0.98461412213847
22	134774	3000	0.98430015946513
22	137494	3060	0.98398607899179
22	139758	3120	0.98367215165846
22	142742	3180	0.98335814186512
22	145030	3240	0.98304419097178
22	147482	3300	0.98273022517527
22	149914	3360	0.98241634808511
22	152824	3420	0.98210235007177
22	155640	3480	0.98178831671843
22	158522	3540	0.9814744482851
22	161290	3600	0.98116045027176
22	164390	3660	0.98084641899147
22	167278	3720	0.98053233176428
22	169852	3780	0.98021837418241
22	172758	3840	0.97990436438908
22	175574	3900	0.97959035459574
22	178270	3960	0.9792764272624
22	180942	4020	0.97896244102907
22	183686	4080	0.97864844301573
22	186310	4140	0.97833443322239
22	188934	4200	0.97802050588905
22	191360	4260	0.97770662567572
22	194128	4320	0.97739247452238
22	196804	4380	0.9770784462489
22	199520	4440	0.9767644549357
22	202480	4500	0.97645046870237
22	204504	4560	0.97613655314903
22	207464	4620	0.97582249623569
22	210786	4680	0.97550836864236
22	213504	4740	0.97519441774902
22	216056	4800	0.97488045507568
22	218764	4860	0.97456645747301
22	221316	4920	0.97425254191968
22	224014	4980	0.97393847143063
31	0	0	10800000
31	2929	60	10796615.950435
31	5481	120	10793231.896435
31	8177	180	10789847.842435
31	10993	240	10786463.788435
31	13545	300	10783079.734435
31	16073	360	10779695.680435
31	18745	420	10776311.626435
31	21369	480	10772927.572435
31	23825	540	10769543.518435
31	26353	600	10766159.464435
31	28929	660	10762775.410435
31	31961	720	10759391.356435
31	34987	780	10756007.302435
31	37563	840	10752623.248435
31	40333	900	10749239.194435
31	42637	960	10745855.140435
31	45573	1020	10742471.086435
31	48509	1080	10739087.032435
31	51373	1140	10735702.978435
31	54071	1200	10732318.924435
31	57095	1260	10728934.87487
31	59695	1320	10725550.82087
31	62463	1380	10722166.76687
31	65681	1440	10718782.71287
31	68233	1500	10715398.65887
31	71147	1560	10712014.60487
31	73505	1620	10708630.55087
31	76345	1680	10705246.49687
31	79107	1740	10701862.44287
31	81635	1800	10698478.38887
31	83979	1860	10695094.33487
31	86523	1920	10691710.28087
31	89315	1980	10688326.22687
31	92491	2040	10684942.17287
31	95163	2100	10681558.11887
31	97547	2160	10678174.06487
31	100939	2220	10674790.01087
31	103251	2280	10671405.95687
31	105731	2340	10668021.90287
31	108405	2400	10664637.84887
31	111327	2460	10661253.799306
31	114071	2520	10657869.745306
31	116673	2580	10654485.691306
31	119271	2640	10651101.637306
31	121823	2700	10647717.583306
31	124761	2760	10644333.529306
31	127337	2820	10640949.475306
31	129863	2880	10637565.421306
31	132031	2940	10634181.367306
31	134775	3000	10630797.313306
31	137495	3060	10627413.259306
31	139759	3120	10624029.205306
31	142743	3180	10620645.151306
31	145031	3240	10617261.097306
31	147483	3300	10613877.043306
31	149915	3360	10610492.989306
31	152825	3420	10607108.935306
31	155641	3480	10603724.881306
31	158523	3540	10600340.827306
31	161291	3600	10596956.773306
31	164391	3660	10593572.723741
31	167279	3720	10590188.669741
31	169853	3780	10586804.615741
31	172759	3840	10583420.561741
31	175575	3900	10580036.507741
31	178271	3960	10576652.453741
31	180943	4020	10573268.399741
31	183687	4080	10569884.345741
31	186311	4140	10566500.291741
31	188935	4200	10563116.237741
31	191361	4260	10559732.183741
31	194129	4320	10556348.129741
31	196805	4380	10552964.075741
31	199521	4440	10549580.021741
31	202481	4500	10546195.967741
31	204505	4560	10542811.913741
31	207465	4620	10539427.859741
31	210787	4680	10536043.805741
31	213505	4740	10532659.751741
31	216057	4800	10529275.697741
31	218765	4860	10525891.648176
31	221317	4920	10522507.594176
31	224015	4980	10519123.540176
32	0	0	1
32	2929	60	0.99968666207733
32	5481	120	0.999373323744
32	8177	180	0.99905998541067
32	10993	240	0.99874664707733
32	13545	300	0.998433308744
32	16073	360	0.99811997041067
32	18745	420	0.99780663207733
32	21369	480	0.997493293744
32	23825	540	0.99717995541067
32	26353	600	0.99686661707733
32	28929	660	0.996553278744
32	31961	720	0.99623994041067
32	34987	780	0.99592660207733
32	37563	840	0.995613263744
32	40333	900	0.99529992541067
32	42637	960	0.99498658707733
32	45573	1020	0.994673248744
32	48509	1080	0.99435991041067
32	51373	1140	0.99404657207733
32	54071	1200	0.993733233744
32	57095	1260	0.99341989582133
32	59695	1320	0.993106557488
32	62463	1380	0.99279321915467
32	65681	1440	0.99247988082133
32	68233	1500	0.992166542488
32	71147	1560	0.99185320415467
32	73505	1620	0.99153986582133
32	76345	1680	0.991226527488
32	79107	1740	0.99091318915467
32	81635	1800	0.99059985082133
32	83979	1860	0.990286512488
32	86523	1920	0.98997317415467
32	89315	1980	0.98965983582133
32	92491	2040	0.989346497488
32	95163	2100	0.98903315915467
32	97547	2160	0.98871982082133
32	100939	2220	0.988406482488
32	103251	2280	0.98809314415467
32	105731	2340	0.98777980582133
32	108405	2400	0.987466467488
32	111327	2460	0.98715312956533
32	114071	2520	0.986839791232
32	116673	2580	0.98652645289867
32	119271	2640	0.98621311456533
32	121823	2700	0.985899776232
32	124761	2760	0.98558643789867
32	127337	2820	0.98527309956533
32	129863	2880	0.984959761232
32	132031	2940	0.98464642289867
32	134775	3000	0.98433308456533
32	137495	3060	0.984019746232
32	139759	3120	0.98370640789867
32	142743	3180	0.98339306956533
32	145031	3240	0.983079731232
32	147483	3300	0.98276639289867
32	149915	3360	0.98245305456533
32	152825	3420	0.982139716232
32	155641	3480	0.98182637789867
32	158523	3540	0.98151303956534
32	161291	3600	0.981199701232
32	164391	3660	0.98088636330933
32	167279	3720	0.980573024976
32	169853	3780	0.98025968664267
32	172759	3840	0.97994634830934
32	175575	3900	0.979633009976
32	178271	3960	0.97931967164267
32	180943	4020	0.97900633330934
32	183687	4080	0.978692994976
32	186311	4140	0.97837965664267
32	188935	4200	0.97806631830934
32	191361	4260	0.977752979976
32	194129	4320	0.97743964164267
32	196805	4380	0.97712630330934
32	199521	4440	0.976812964976
32	202481	4500	0.97649962664267
32	204505	4560	0.97618628830934
32	207465	4620	0.975872949976
32	210787	4680	0.97555961164267
32	213505	4740	0.97524627330934
32	216057	4800	0.974932934976
32	218765	4860	0.97461959705334
32	221317	4920	0.97430625872
32	224015	4980	0.97399292038667
33	0	0	10800000
33	2929	60	10796615.950435
33	5481	120	10793231.896435
33	8177	180	10789847.842435
33	10993	240	10786463.788435
33	13545	300	10783079.734435
33	16073	360	10779695.680435
33	18745	420	10776311.626435
33	21369	480	10772927.572435
33	23825	540	10769543.518435
33	26353	600	10766159.464435
33	28929	660	10762775.410435
33	31961	720	10759391.356435
33	34987	780	10756007.302435
33	37563	840	10752623.248435
33	40333	900	10749239.194435
33	42637	960	10745855.140435
33	45573	1020	10742471.086435
33	48509	1080	10739087.032435
33	51373	1140	10735702.978435
33	54071	1200	10732318.924435
33	57095	1260	10728934.87487
33	59695	1320	10725550.82087
33	62463	1380	10722166.76687
33	65681	1440	10718782.71287
33	68233	1500	10715398.65887
33	71147	1560	10712014.60487
33	73505	1620	10708630.55087
33	76345	1680	10705246.49687
33	79107	1740	10701862.44287
33	81635	1800	10698478.38887
33	83979	1860	10695094.33487
33	86523	1920	10691710.28087
33	89315	1980	10688326.22687
33	92491	2040	10684942.17287
33	95163	2100	10681558.11887
33	97547	2160	10678174.06487
33	100939	2220	10674790.01087
33	103251	2280	10671405.95687
33	105731	2340	10668021.90287
33	108405	2400	10664637.84887
33	111327	2460	10661253.799306
33	114071	2520	10657869.745306
33	116673	2580	10654485.691306
33	119271	2640	10651101.637306
33	121823	2700	10647717.583306
33	124761	2760	10644333.529306
33	127337	2820	10640949.475306
33	129863	2880	10637565.421306
33	132031	2940	10634181.367306
33	134775	3000	10630797.313306
33	137495	3060	10627413.259306
33	139759	3120	10624029.205306
33	142743	3180	10620645.151306
33	145031	3240	10617261.097306
33	147483	3300	10613877.043306
33	149915	3360	10610492.989306
33	152825	3420	10607108.935306
33	155641	3480	10603724.881306
33	158523	3540	10600340.827306
33	161291	3600	10596956.773306
33	164391	3660	10593572.723741
33	167279	3720	10590188.669741
33	169853	3780	10586804.615741
33	172759	3840	10583420.561741
33	175575	3900	10580036.507741
33	178271	3960	10576652.453741
33	180943	4020	10573268.399741
33	183687	4080	10569884.345741
33	186311	4140	10566500.291741
33	188935	4200	10563116.237741
33	191361	4260	10559732.183741
33	194129	4320	10556348.129741
33	196805	4380	10552964.075741
33	199521	4440	10549580.021741
33	202481	4500	10546195.967741
33	204505	4560	10542811.913741
33	207465	4620	10539427.859741
33	210787	4680	10536043.805741
33	213505	4740	10532659.751741
33	216057	4800	10529275.697741
33	218765	4860	10525891.648176
33	221317	4920	10522507.594176
33	224015	4980	10519123.540176
34	0	0	1
34	2929	60	0.99968666207733
34	5481	120	0.999373323744
34	8177	180	0.99905998541067
34	10993	240	0.99874664707733
34	13545	300	0.998433308744
34	16073	360	0.99811997041067
34	18745	420	0.99780663207733
34	21369	480	0.997493293744
34	23825	540	0.99717995541067
34	26353	600	0.99686661707733